
     Program BANDS v.7.0 starts on  6Jul2023 at 19:12:29 

     This program is part of the open-source Quantum ESPRESSO suite
     for quantum simulation of materials; please cite
         "P. Giannozzi et al., J. Phys.:Condens. Matter 21 395502 (2009);
         "P. Giannozzi et al., J. Phys.:Condens. Matter 29 465901 (2017);
         "P. Giannozzi et al., J. Chem. Phys. 152 154105 (2020);
          URL http://www.quantum-espresso.org", 
     in publications or presentations arising from this work. More details at
     http://www.quantum-espresso.org/quote

     Parallel version (MPI), running on   144 processors

     MPI processes distributed on     2 nodes
     K-points division:     npool     =       2
     R & G space division:  proc/nbgrp/npool/nimage =      72
     232428 MiB available memory on the printing compute node when the environment starts
 

     Reading xml data from directory:

     ./MoSe2.save/

     IMPORTANT: XC functional enforced from input :
     Exchange-correlation= PBE
                           (   1   4   3   4   0   0   0)
     Any further DFT definition will be discarded
     Please, verify this is what you really want

 
     Parallelization info
     --------------------
     sticks:   dense  smooth     PW     G-vecs:    dense   smooth      PW
     Min          14      14      4                 1822     1822     274
     Max          15      15      5                 1865     1865     297
     Sum        1069    1069    313               133157   133157   20391
 
     Using Slab Decomposition
 
     Reading collected, re-writing distributed wavefunctions
     high-symmetry point:  0.0000 0.0000 0.0000   x coordinate   0.0000
     high-symmetry point:  0.3330 0.5768 0.0000   x coordinate   0.6660
     high-symmetry point:  0.5000 0.2887 0.0000   x coordinate   0.9990
     high-symmetry point:  0.0000 0.0000 0.0000   x coordinate   1.5764

     Plottable bands (eV) written to file bands.dat.gnu
     Bands written to file bands.dat

 **************************************************************************

                    xk=(   0.00000,   0.00000,   0.00000  )

     double point group C_3v (3m)  
     there are  6 classes and  3 irreducible representations
     the character table:

       E     -E    2C3   -2C3  3s_v  -3s_v
                                          
G_4    2.00 -2.00  1.00 -1.00  0.00  0.00
G_5    1.00 -1.00 -1.00  1.00  0.00  0.00
G_6    1.00 -1.00 -1.00  1.00  0.00  0.00

     imaginary part

       E     -E    2C3   -2C3  3s_v  -3s_v
                                          
G_4    0.00  0.00  0.00  0.00  0.00  0.00
G_5    0.00  0.00  0.00  0.00  1.00 -1.00
G_6    0.00  0.00  0.00  0.00 -1.00  1.00

     the symmetry operations in each class and the name of the first element:

     E             1
                                                                 
     -E           -1
                                                                 
     2C3           2    3
                                                                 
     -2C3         -2   -3
                                                                 
     3s_v          5    6   -4
                                                                 
     -3s_v         4   -5   -6
                                                                 

     Band symmetry, C_3v (3m)   double point group:

     e(  1 -  2) =    -58.74673  eV     2   --> G_4   L_6      
     e(  3 -  4) =    -45.87781  eV     2   --> G_5   L_4      
     e(  3 -  4) =    -45.87781  eV     2   --> G_6   L_5      
     e(  5 -  6) =    -45.87761  eV     2   --> G_5   L_4      
     e(  5 -  6) =    -45.87761  eV     2   --> G_6   L_5      
     e(  7 -  8) =    -45.82882  eV     2   --> G_4   L_6      
     e(  9 - 10) =    -45.82860  eV     2   --> G_4   L_6      
     e( 11 - 12) =    -44.99402  eV     2   --> G_4   L_6      
     e( 13 - 14) =    -44.99369  eV     2   --> G_4   L_6      
     e( 15 - 16) =    -44.95290  eV     2   --> G_5   L_4      
     e( 15 - 16) =    -44.95290  eV     2   --> G_6   L_5      
     e( 17 - 18) =    -44.95211  eV     2   --> G_5   L_4      
     e( 17 - 18) =    -44.95211  eV     2   --> G_6   L_5      
     e( 19 - 20) =    -44.93116  eV     2   --> G_4   L_6      
     e( 21 - 22) =    -44.93023  eV     2   --> G_4   L_6      
     e( 23 - 24) =    -34.50533  eV     2   --> G_4   L_6      
     e( 25 - 26) =    -32.06308  eV     2   --> G_4   L_6      
     e( 27 - 28) =    -31.94468  eV     2   --> G_5   L_4      
     e( 27 - 28) =    -31.94468  eV     2   --> G_6   L_5      
     e( 29 - 30) =    -12.09276  eV     2   --> G_4   L_6      
     e( 31 - 32) =    -11.09232  eV     2   --> G_4   L_6      
     e( 33 - 34) =     -3.28820  eV     2   --> G_4   L_6      
     e( 35 - 36) =     -0.10247  eV     2   --> G_4   L_6      
     e( 37 - 38) =     -0.06152  eV     2   --> G_5   L_4      
     e( 37 - 38) =     -0.06152  eV     2   --> G_6   L_5      
     e( 39 - 40) =      0.28666  eV     2   --> G_4   L_6      
     e( 41 - 42) =      0.80985  eV     2   --> G_4   L_6      
     e( 43 - 44) =      1.00873  eV     2   --> G_5   L_4      
     e( 43 - 44) =      1.00873  eV     2   --> G_6   L_5      
     e( 45 - 46) =      1.83752  eV     2   --> G_4   L_6      
     e( 47 - 48) =      4.76334  eV     2   --> G_4   L_6      
     e( 49 - 50) =      5.02735  eV     2   --> G_5   L_4      
     e( 49 - 50) =      5.02735  eV     2   --> G_6   L_5      
     e( 51 - 52) =      5.02855  eV     2   --> G_4   L_6      
     e( 53 - 54) =      5.24352  eV     2   --> G_5   L_4      
     e( 53 - 54) =      5.24352  eV     2   --> G_6   L_5      
     e( 55 - 56) =      6.65227  eV     2   --> G_4   L_6      
     e( 57 - 58) =      7.33161  eV     2   --> G_4   L_6      
     e( 59 - 60) =      7.85428  eV     2   --> G_4   L_6      
     e( 61 - 62) =      9.04977  eV     2   --> G_4   L_6      
     e( 63 - 64) =     10.49909  eV     2   --> G_4   L_6      
     e( 65 - 66) =     11.11911  eV     2   --> G_4   L_6      
     e( 67 - 68) =     12.62464  eV     2   --> G_4   L_6      
     e( 69 - 70) =     12.93027  eV     2   --> G_4   L_6      

 **************************************************************************

 **************************************************************************

                    xk=(   0.00680,   0.01177,   0.00000  )

     double point group C_1 (1)    
     there are  2 classes and  1 irreducible representations
     the character table:

       E     -E   
                  
G_2    1.00 -1.00

     the symmetry operations in each class and the name of the first element:

     E             1
                                                                 
     -E           -1
                                                                 

     Band symmetry, C_1 (1)     double point group:

     e(  1 -  2) =    -58.74670  eV     2   -->   2 G_2            
     e(  3 -  4) =    -45.87781  eV     2   -->   2 G_2            
     e(  5 -  6) =    -45.87761  eV     2   -->   2 G_2            
     e(  7 -  8) =    -45.82882  eV     2   -->   2 G_2            
     e(  9 - 10) =    -45.82860  eV     2   -->   2 G_2            
     e( 11 - 12) =    -44.99402  eV     2   -->   2 G_2            
     e( 13 - 14) =    -44.99369  eV     2   -->   2 G_2            
     e( 15 - 16) =    -44.95290  eV     2   -->   2 G_2            
     e( 17 - 18) =    -44.95211  eV     2   -->   2 G_2            
     e( 19 - 20) =    -44.93116  eV     2   -->   2 G_2            
     e( 21 - 22) =    -44.93023  eV     2   -->   2 G_2            
     e( 23 - 24) =    -34.50542  eV     2   -->   2 G_2            
     e( 25 - 26) =    -32.06311  eV     2   -->   2 G_2            
     e( 27 - 28) =    -31.94491  eV     2   -->   2 G_2            
     e( 29 - 30) =    -12.09090  eV     2   -->   2 G_2            
     e( 31 - 32) =    -11.09131  eV     2   -->   2 G_2            
     e( 33 - 34) =     -3.28587  eV     2   -->   2 G_2            
     e( 35 - 36) =     -0.10478  eV     2   -->   2 G_2            
     e( 37 - 38) =     -0.06281  eV     2   -->   2 G_2            
     e( 39 - 40) =      0.27865  eV     2   -->   2 G_2            
     e( 41 - 41) =      0.81134  eV     1   --> G_2            
     e( 42 - 42) =      0.81195  eV     1   --> G_2            
     e( 43 - 43) =      1.00911  eV     1   --> G_2            
     e( 44 - 44) =      1.00966  eV     1   --> G_2            
     e( 45 - 46) =      1.83702  eV     2   -->   2 G_2            
     e( 47 - 47) =      4.76178  eV     1   --> G_2            
     e( 48 - 48) =      4.76190  eV     1   --> G_2            
     e( 49 - 49) =      5.02195  eV     1   --> G_2            
     e( 50 - 50) =      5.02235  eV     1   --> G_2            
     e( 51 - 51) =      5.02508  eV     1   --> G_2            
     e( 52 - 52) =      5.02532  eV     1   --> G_2            
     e( 53 - 54) =      5.23623  eV     2   -->   2 G_2            
     e( 55 - 56) =      6.65814  eV     2   -->   2 G_2            
     e( 57 - 58) =      7.33439  eV     2   -->   2 G_2            
     e( 59 - 60) =      7.86329  eV     2   -->   2 G_2            
     e( 61 - 62) =      9.05352  eV     2   -->   2 G_2            
     e( 63 - 64) =     10.51176  eV     2   -->   2 G_2            
     e( 65 - 66) =     11.12167  eV     2   -->   2 G_2            
     e( 67 - 68) =     12.61265  eV     2   -->   2 G_2            
     e( 69 - 69) =     12.93731  eV     1   --> G_2            
     e( 70 - 70) =     12.93793  eV     1   --> G_2            

 **************************************************************************

 **************************************************************************

                    xk=(   0.01359,   0.02354,   0.00000  )

     Band symmetry, C_1 (1)     double point group:

     e(  1 -  2) =    -58.74662  eV     2   -->   2 G_2            
     e(  3 -  4) =    -45.87780  eV     2   -->   2 G_2            
     e(  5 -  6) =    -45.87761  eV     2   -->   2 G_2            
     e(  7 -  8) =    -45.82882  eV     2   -->   2 G_2            
     e(  9 - 10) =    -45.82860  eV     2   -->   2 G_2            
     e( 11 - 12) =    -44.99401  eV     2   -->   2 G_2            
     e( 13 - 14) =    -44.99368  eV     2   -->   2 G_2            
     e( 15 - 16) =    -44.95290  eV     2   -->   2 G_2            
     e( 17 - 18) =    -44.95211  eV     2   -->   2 G_2            
     e( 19 - 20) =    -44.93116  eV     2   -->   2 G_2            
     e( 21 - 22) =    -44.93022  eV     2   -->   2 G_2            
     e( 23 - 24) =    -34.50569  eV     2   -->   2 G_2            
     e( 25 - 26) =    -32.06320  eV     2   -->   2 G_2            
     e( 27 - 28) =    -31.94558  eV     2   -->   2 G_2            
     e( 29 - 30) =    -12.08534  eV     2   -->   2 G_2            
     e( 31 - 32) =    -11.08827  eV     2   -->   2 G_2            
     e( 33 - 34) =     -3.27890  eV     2   -->   2 G_2            
     e( 35 - 35) =     -0.11431  eV     1   --> G_2            
     e( 36 - 36) =     -0.11421  eV     1   --> G_2            
     e( 37 - 37) =     -0.06419  eV     1   --> G_2            
     e( 38 - 38) =     -0.06395  eV     1   --> G_2            
     e( 39 - 39) =      0.25569  eV     1   --> G_2            
     e( 40 - 40) =      0.25591  eV     1   --> G_2            
     e( 41 - 41) =      0.81294  eV     1   --> G_2            
     e( 42 - 42) =      0.81764  eV     1   --> G_2            
     e( 43 - 43) =      1.00991  eV     1   --> G_2            
     e( 44 - 44) =      1.01421  eV     1   --> G_2            
     e( 45 - 46) =      1.83548  eV     2   -->   2 G_2            
     e( 47 - 47) =      4.75597  eV     1   --> G_2            
     e( 48 - 48) =      4.75687  eV     1   --> G_2            
     e( 49 - 49) =      5.00231  eV     1   --> G_2            
     e( 50 - 50) =      5.00343  eV     1   --> G_2            
     e( 51 - 52) =      5.01965  eV     2   -->   2 G_2            
     e( 53 - 53) =      5.21554  eV     1   --> G_2            
     e( 54 - 54) =      5.21602  eV     1   --> G_2            
     e( 55 - 56) =      6.67512  eV     2   -->   2 G_2            
     e( 57 - 58) =      7.34269  eV     2   -->   2 G_2            
     e( 59 - 60) =      7.89003  eV     2   -->   2 G_2            
     e( 61 - 62) =      9.06482  eV     2   -->   2 G_2            
     e( 63 - 64) =     10.54931  eV     2   -->   2 G_2            
     e( 65 - 66) =     11.12941  eV     2   -->   2 G_2            
     e( 67 - 67) =     12.57912  eV     1   --> G_2            
     e( 68 - 68) =     12.57951  eV     1   --> G_2            
     e( 69 - 69) =     12.95579  eV     1   --> G_2            
     e( 70 - 70) =     12.96035  eV     1   --> G_2            

 **************************************************************************

 **************************************************************************

                    xk=(   0.02039,   0.03531,   0.00000  )

     Band symmetry, C_1 (1)     double point group:

     e(  1 -  2) =    -58.74648  eV     2   -->   2 G_2            
     e(  3 -  4) =    -45.87779  eV     2   -->   2 G_2            
     e(  5 -  6) =    -45.87760  eV     2   -->   2 G_2            
     e(  7 -  8) =    -45.82882  eV     2   -->   2 G_2            
     e(  9 - 10) =    -45.82859  eV     2   -->   2 G_2            
     e( 11 - 12) =    -44.99399  eV     2   -->   2 G_2            
     e( 13 - 14) =    -44.99367  eV     2   -->   2 G_2            
     e( 15 - 16) =    -44.95290  eV     2   -->   2 G_2            
     e( 17 - 18) =    -44.95212  eV     2   -->   2 G_2            
     e( 19 - 20) =    -44.93115  eV     2   -->   2 G_2            
     e( 21 - 22) =    -44.93021  eV     2   -->   2 G_2            
     e( 23 - 24) =    -34.50613  eV     2   -->   2 G_2            
     e( 25 - 26) =    -32.06335  eV     2   -->   2 G_2            
     e( 27 - 28) =    -31.94670  eV     2   -->   2 G_2            
     e( 29 - 30) =    -12.07609  eV     2   -->   2 G_2            
     e( 31 - 32) =    -11.08321  eV     2   -->   2 G_2            
     e( 33 - 34) =     -3.26732  eV     2   -->   2 G_2            
     e( 35 - 35) =     -0.13501  eV     1   --> G_2            
     e( 36 - 36) =     -0.13477  eV     1   --> G_2            
     e( 37 - 37) =     -0.06207  eV     1   --> G_2            
     e( 38 - 38) =     -0.06102  eV     1   --> G_2            
     e( 39 - 39) =      0.22079  eV     1   --> G_2            
     e( 40 - 40) =      0.22109  eV     1   --> G_2            
     e( 41 - 41) =      0.80922  eV     1   --> G_2            
     e( 42 - 42) =      0.82370  eV     1   --> G_2            
     e( 43 - 43) =      1.01176  eV     1   --> G_2            
     e( 44 - 44) =      1.02517  eV     1   --> G_2            
     e( 45 - 46) =      1.83281  eV     2   -->   2 G_2            
     e( 47 - 47) =      4.74313  eV     1   --> G_2            
     e( 48 - 48) =      4.74605  eV     1   --> G_2            
     e( 49 - 49) =      4.96844  eV     1   --> G_2            
     e( 50 - 50) =      4.97110  eV     1   --> G_2            
     e( 51 - 51) =      5.01373  eV     1   --> G_2            
     e( 52 - 52) =      5.01486  eV     1   --> G_2            
     e( 53 - 53) =      5.18474  eV     1   --> G_2            
     e( 54 - 54) =      5.18617  eV     1   --> G_2            
     e( 55 - 56) =      6.70161  eV     2   -->   2 G_2            
     e( 57 - 58) =      7.35641  eV     2   -->   2 G_2            
     e( 59 - 59) =      7.93362  eV     1   --> G_2            
     e( 60 - 60) =      7.93374  eV     1   --> G_2            
     e( 61 - 62) =      9.08384  eV     2   -->   2 G_2            
     e( 63 - 64) =     10.61036  eV     2   -->   2 G_2            
     e( 65 - 66) =     11.14251  eV     2   -->   2 G_2            
     e( 67 - 67) =     12.52922  eV     1   --> G_2            
     e( 68 - 68) =     12.53002  eV     1   --> G_2            
     e( 69 - 69) =     12.98112  eV     1   --> G_2            
     e( 70 - 70) =     12.99430  eV     1   --> G_2            

 **************************************************************************

 **************************************************************************

                    xk=(   0.02718,   0.04708,   0.00000  )

     Band symmetry, C_1 (1)     double point group:

     e(  1 -  2) =    -58.74628  eV     2   -->   2 G_2            
     e(  3 -  4) =    -45.87777  eV     2   -->   2 G_2            
     e(  5 -  6) =    -45.87759  eV     2   -->   2 G_2            
     e(  7 -  8) =    -45.82883  eV     2   -->   2 G_2            
     e(  9 - 10) =    -45.82859  eV     2   -->   2 G_2            
     e( 11 - 12) =    -44.99397  eV     2   -->   2 G_2            
     e( 13 - 14) =    -44.99365  eV     2   -->   2 G_2            
     e( 15 - 16) =    -44.95290  eV     2   -->   2 G_2            
     e( 17 - 18) =    -44.95213  eV     2   -->   2 G_2            
     e( 19 - 20) =    -44.93115  eV     2   -->   2 G_2            
     e( 21 - 22) =    -44.93020  eV     2   -->   2 G_2            
     e( 23 - 24) =    -34.50674  eV     2   -->   2 G_2            
     e( 25 - 26) =    -32.06357  eV     2   -->   2 G_2            
     e( 27 - 28) =    -31.94826  eV     2   -->   2 G_2            
     e( 29 - 30) =    -12.06318  eV     2   -->   2 G_2            
     e( 31 - 32) =    -11.07616  eV     2   -->   2 G_2            
     e( 33 - 34) =     -3.25120  eV     2   -->   2 G_2            
     e( 35 - 35) =     -0.16714  eV     1   --> G_2            
     e( 36 - 36) =     -0.16668  eV     1   --> G_2            
     e( 37 - 37) =     -0.05719  eV     1   --> G_2            
     e( 38 - 38) =     -0.05406  eV     1   --> G_2            
     e( 39 - 39) =      0.17768  eV     1   --> G_2            
     e( 40 - 40) =      0.17825  eV     1   --> G_2            
     e( 41 - 41) =      0.79597  eV     1   --> G_2            
     e( 42 - 42) =      0.82524  eV     1   --> G_2            
     e( 43 - 43) =      1.01641  eV     1   --> G_2            
     e( 44 - 44) =      1.04389  eV     1   --> G_2            
     e( 45 - 45) =      1.82882  eV     1   --> G_2            
     e( 46 - 46) =      1.82903  eV     1   --> G_2            
     e( 47 - 47) =      4.72019  eV     1   --> G_2            
     e( 48 - 48) =      4.72652  eV     1   --> G_2            
     e( 49 - 49) =      4.91984  eV     1   --> G_2            
     e( 50 - 50) =      4.92489  eV     1   --> G_2            
     e( 51 - 51) =      5.01186  eV     1   --> G_2            
     e( 52 - 52) =      5.01446  eV     1   --> G_2            
     e( 53 - 53) =      5.14814  eV     1   --> G_2            
     e( 54 - 54) =      5.15078  eV     1   --> G_2            
     e( 55 - 56) =      6.73559  eV     2   -->   2 G_2            
     e( 57 - 58) =      7.37542  eV     2   -->   2 G_2            
     e( 59 - 59) =      7.99265  eV     1   --> G_2            
     e( 60 - 60) =      7.99290  eV     1   --> G_2            
     e( 61 - 61) =      9.11085  eV     1   --> G_2            
     e( 62 - 62) =      9.11102  eV     1   --> G_2            
     e( 63 - 64) =     10.69255  eV     2   -->   2 G_2            
     e( 65 - 66) =     11.16141  eV     2   -->   2 G_2            
     e( 67 - 67) =     12.46785  eV     1   --> G_2            
     e( 68 - 68) =     12.46890  eV     1   --> G_2            
     e( 69 - 69) =     13.00907  eV     1   --> G_2            
     e( 70 - 70) =     13.03248  eV     1   --> G_2            

 **************************************************************************

 **************************************************************************

                    xk=(   0.03398,   0.05885,   0.00000  )

     Band symmetry, C_1 (1)     double point group:

     e(  1 -  2) =    -58.74603  eV     2   -->   2 G_2            
     e(  3 -  4) =    -45.87775  eV     2   -->   2 G_2            
     e(  5 -  6) =    -45.87757  eV     2   -->   2 G_2            
     e(  7 -  8) =    -45.82883  eV     2   -->   2 G_2            
     e(  9 - 10) =    -45.82858  eV     2   -->   2 G_2            
     e( 11 - 12) =    -44.99394  eV     2   -->   2 G_2            
     e( 13 - 14) =    -44.99363  eV     2   -->   2 G_2            
     e( 15 - 16) =    -44.95290  eV     2   -->   2 G_2            
     e( 17 - 18) =    -44.95214  eV     2   -->   2 G_2            
     e( 19 - 20) =    -44.93114  eV     2   -->   2 G_2            
     e( 21 - 22) =    -44.93019  eV     2   -->   2 G_2            
     e( 23 - 24) =    -34.50753  eV     2   -->   2 G_2            
     e( 25 - 26) =    -32.06386  eV     2   -->   2 G_2            
     e( 27 - 27) =    -31.95025  eV     1   --> G_2            
     e( 28 - 28) =    -31.95011  eV     1   --> G_2            
     e( 29 - 30) =    -12.04664  eV     2   -->   2 G_2            
     e( 31 - 32) =    -11.06711  eV     2   -->   2 G_2            
     e( 33 - 33) =     -3.23064  eV     1   --> G_2            
     e( 34 - 34) =     -3.23052  eV     1   --> G_2            
     e( 35 - 35) =     -0.20933  eV     1   --> G_2            
     e( 36 - 36) =     -0.20854  eV     1   --> G_2            
     e( 37 - 37) =     -0.05376  eV     1   --> G_2            
     e( 38 - 38) =     -0.04582  eV     1   --> G_2            
     e( 39 - 39) =      0.12993  eV     1   --> G_2            
     e( 40 - 40) =      0.13405  eV     1   --> G_2            
     e( 41 - 41) =      0.77182  eV     1   --> G_2            
     e( 42 - 42) =      0.81770  eV     1   --> G_2            
     e( 43 - 43) =      1.02556  eV     1   --> G_2            
     e( 44 - 44) =      1.06915  eV     1   --> G_2            
     e( 45 - 45) =      1.82330  eV     1   --> G_2            
     e( 46 - 46) =      1.82368  eV     1   --> G_2            
     e( 47 - 47) =      4.68573  eV     1   --> G_2            
     e( 48 - 48) =      4.69647  eV     1   --> G_2            
     e( 49 - 49) =      4.85746  eV     1   --> G_2            
     e( 50 - 50) =      4.86551  eV     1   --> G_2            
     e( 51 - 51) =      5.01729  eV     1   --> G_2            
     e( 52 - 52) =      5.01996  eV     1   --> G_2            
     e( 53 - 53) =      5.11053  eV     1   --> G_2            
     e( 54 - 54) =      5.11298  eV     1   --> G_2            
     e( 55 - 55) =      6.77519  eV     1   --> G_2            
     e( 56 - 56) =      6.77537  eV     1   --> G_2            
     e( 57 - 57) =      7.39958  eV     1   --> G_2            
     e( 58 - 58) =      7.39975  eV     1   --> G_2            
     e( 59 - 59) =      8.06521  eV     1   --> G_2            
     e( 60 - 60) =      8.06564  eV     1   --> G_2            
     e( 61 - 61) =      9.14628  eV     1   --> G_2            
     e( 62 - 62) =      9.14662  eV     1   --> G_2            
     e( 63 - 63) =     10.79240  eV     1   --> G_2            
     e( 64 - 64) =     10.79251  eV     1   --> G_2            
     e( 65 - 65) =     11.18708  eV     1   --> G_2            
     e( 66 - 66) =     11.18723  eV     1   --> G_2            
     e( 67 - 67) =     12.39869  eV     1   --> G_2            
     e( 68 - 68) =     12.39969  eV     1   --> G_2            
     e( 69 - 69) =     13.03705  eV     1   --> G_2            
     e( 70 - 70) =     13.06600  eV     1   --> G_2            

 **************************************************************************

 **************************************************************************

                    xk=(   0.04078,   0.07063,   0.00000  )

     Band symmetry, C_1 (1)     double point group:

     e(  1 -  2) =    -58.74572  eV     2   -->   2 G_2            
     e(  3 -  4) =    -45.87773  eV     2   -->   2 G_2            
     e(  5 -  6) =    -45.87756  eV     2   -->   2 G_2            
     e(  7 -  8) =    -45.82883  eV     2   -->   2 G_2            
     e(  9 - 10) =    -45.82857  eV     2   -->   2 G_2            
     e( 11 - 12) =    -44.99390  eV     2   -->   2 G_2            
     e( 13 - 14) =    -44.99361  eV     2   -->   2 G_2            
     e( 15 - 16) =    -44.95291  eV     2   -->   2 G_2            
     e( 17 - 18) =    -44.95215  eV     2   -->   2 G_2            
     e( 19 - 20) =    -44.93114  eV     2   -->   2 G_2            
     e( 21 - 22) =    -44.93017  eV     2   -->   2 G_2            
     e( 23 - 23) =    -34.50850  eV     1   --> G_2            
     e( 24 - 24) =    -34.50839  eV     1   --> G_2            
     e( 25 - 26) =    -32.06422  eV     2   -->   2 G_2            
     e( 27 - 27) =    -31.95264  eV     1   --> G_2            
     e( 28 - 28) =    -31.95242  eV     1   --> G_2            
     e( 29 - 29) =    -12.02653  eV     1   --> G_2            
     e( 30 - 30) =    -12.02636  eV     1   --> G_2            
     e( 31 - 32) =    -11.05612  eV     2   -->   2 G_2            
     e( 33 - 33) =     -3.20575  eV     1   --> G_2            
     e( 34 - 34) =     -3.20554  eV     1   --> G_2            
     e( 35 - 35) =     -0.26042  eV     1   --> G_2            
     e( 36 - 36) =     -0.25917  eV     1   --> G_2            
     e( 37 - 37) =     -0.06040  eV     1   --> G_2            
     e( 38 - 38) =     -0.04276  eV     1   --> G_2            
     e( 39 - 39) =      0.08553  eV     1   --> G_2            
     e( 40 - 40) =      0.09827  eV     1   --> G_2            
     e( 41 - 41) =      0.73731  eV     1   --> G_2            
     e( 42 - 42) =      0.79857  eV     1   --> G_2            
     e( 43 - 43) =      1.03942  eV     1   --> G_2            
     e( 44 - 44) =      1.09841  eV     1   --> G_2            
     e( 45 - 45) =      1.81597  eV     1   --> G_2            
     e( 46 - 46) =      1.81659  eV     1   --> G_2            
     e( 47 - 47) =      4.64099  eV     1   --> G_2            
     e( 48 - 48) =      4.65655  eV     1   --> G_2            
     e( 49 - 49) =      4.78389  eV     1   --> G_2            
     e( 50 - 50) =      4.79519  eV     1   --> G_2            
     e( 51 - 51) =      5.02216  eV     1   --> G_2            
     e( 52 - 52) =      5.02843  eV     1   --> G_2            
     e( 53 - 53) =      5.07677  eV     1   --> G_2            
     e( 54 - 54) =      5.08314  eV     1   --> G_2            
     e( 55 - 55) =      6.81900  eV     1   --> G_2            
     e( 56 - 56) =      6.81928  eV     1   --> G_2            
     e( 57 - 57) =      7.42875  eV     1   --> G_2            
     e( 58 - 58) =      7.42901  eV     1   --> G_2            
     e( 59 - 59) =      8.14899  eV     1   --> G_2            
     e( 60 - 60) =      8.14960  eV     1   --> G_2            
     e( 61 - 61) =      9.19067  eV     1   --> G_2            
     e( 62 - 62) =      9.19128  eV     1   --> G_2            
     e( 63 - 63) =     10.90458  eV     1   --> G_2            
     e( 64 - 64) =     10.90493  eV     1   --> G_2            
     e( 65 - 65) =     11.22186  eV     1   --> G_2            
     e( 66 - 66) =     11.22216  eV     1   --> G_2            
     e( 67 - 67) =     12.32450  eV     1   --> G_2            
     e( 68 - 68) =     12.32512  eV     1   --> G_2            
     e( 69 - 69) =     13.06414  eV     1   --> G_2            
     e( 70 - 70) =     13.09506  eV     1   --> G_2            

 **************************************************************************

 **************************************************************************

                    xk=(   0.04757,   0.08240,   0.00000  )

     Band symmetry, C_1 (1)     double point group:

     e(  1 -  2) =    -58.74537  eV     2   -->   2 G_2            
     e(  3 -  4) =    -45.87770  eV     2   -->   2 G_2            
     e(  5 -  6) =    -45.87754  eV     2   -->   2 G_2            
     e(  7 -  8) =    -45.82884  eV     2   -->   2 G_2            
     e(  9 - 10) =    -45.82856  eV     2   -->   2 G_2            
     e( 11 - 12) =    -44.99386  eV     2   -->   2 G_2            
     e( 13 - 14) =    -44.99358  eV     2   -->   2 G_2            
     e( 15 - 16) =    -44.95291  eV     2   -->   2 G_2            
     e( 17 - 18) =    -44.95216  eV     2   -->   2 G_2            
     e( 19 - 20) =    -44.93113  eV     2   -->   2 G_2            
     e( 21 - 22) =    -44.93015  eV     2   -->   2 G_2            
     e( 23 - 23) =    -34.50963  eV     1   --> G_2            
     e( 24 - 24) =    -34.50947  eV     1   --> G_2            
     e( 25 - 25) =    -32.06466  eV     1   --> G_2            
     e( 26 - 26) =    -32.06453  eV     1   --> G_2            
     e( 27 - 27) =    -31.95543  eV     1   --> G_2            
     e( 28 - 28) =    -31.95508  eV     1   --> G_2            
     e( 29 - 29) =    -12.00290  eV     1   --> G_2            
     e( 30 - 30) =    -12.00264  eV     1   --> G_2            
     e( 31 - 32) =    -11.04319  eV     2   -->   2 G_2            
     e( 33 - 33) =     -3.17669  eV     1   --> G_2            
     e( 34 - 34) =     -3.17636  eV     1   --> G_2            
     e( 35 - 35) =     -0.31950  eV     1   --> G_2            
     e( 36 - 36) =     -0.31766  eV     1   --> G_2            
     e( 37 - 37) =     -0.08861  eV     1   --> G_2            
     e( 38 - 38) =     -0.06053  eV     1   --> G_2            
     e( 39 - 39) =      0.06121  eV     1   --> G_2            
     e( 40 - 40) =      0.08368  eV     1   --> G_2            
     e( 41 - 41) =      0.69336  eV     1   --> G_2            
     e( 42 - 42) =      0.76756  eV     1   --> G_2            
     e( 43 - 43) =      1.05654  eV     1   --> G_2            
     e( 44 - 44) =      1.12921  eV     1   --> G_2            
     e( 45 - 45) =      1.80653  eV     1   --> G_2            
     e( 46 - 46) =      1.80742  eV     1   --> G_2            
     e( 47 - 47) =      4.58891  eV     1   --> G_2            
     e( 48 - 48) =      4.60935  eV     1   --> G_2            
     e( 49 - 49) =      4.70248  eV     1   --> G_2            
     e( 50 - 50) =      4.71710  eV     1   --> G_2            
     e( 51 - 51) =      4.99614  eV     1   --> G_2            
     e( 52 - 52) =      5.01693  eV     1   --> G_2            
     e( 53 - 53) =      5.06983  eV     1   --> G_2            
     e( 54 - 54) =      5.09007  eV     1   --> G_2            
     e( 55 - 55) =      6.86611  eV     1   --> G_2            
     e( 56 - 56) =      6.86651  eV     1   --> G_2            
     e( 57 - 57) =      7.46278  eV     1   --> G_2            
     e( 58 - 58) =      7.46317  eV     1   --> G_2            
     e( 59 - 59) =      8.24139  eV     1   --> G_2            
     e( 60 - 60) =      8.24216  eV     1   --> G_2            
     e( 61 - 61) =      9.24470  eV     1   --> G_2            
     e( 62 - 62) =      9.24568  eV     1   --> G_2            
     e( 63 - 63) =     11.01995  eV     1   --> G_2            
     e( 64 - 64) =     11.02077  eV     1   --> G_2            
     e( 65 - 65) =     11.27146  eV     1   --> G_2            
     e( 66 - 66) =     11.27202  eV     1   --> G_2            
     e( 67 - 68) =     12.24737  eV     2   -->   2 G_2            
     e( 69 - 69) =     13.09014  eV     1   --> G_2            
     e( 70 - 70) =     13.12229  eV     1   --> G_2            

 **************************************************************************

 **************************************************************************

                    xk=(   0.05437,   0.09417,   0.00000  )

     Band symmetry, C_1 (1)     double point group:

     e(  1 -  2) =    -58.74496  eV     2   -->   2 G_2            
     e(  3 -  4) =    -45.87767  eV     2   -->   2 G_2            
     e(  5 -  6) =    -45.87752  eV     2   -->   2 G_2            
     e(  7 -  8) =    -45.82884  eV     2   -->   2 G_2            
     e(  9 - 10) =    -45.82855  eV     2   -->   2 G_2            
     e( 11 - 12) =    -44.99381  eV     2   -->   2 G_2            
     e( 13 - 14) =    -44.99354  eV     2   -->   2 G_2            
     e( 15 - 16) =    -44.95291  eV     2   -->   2 G_2            
     e( 17 - 18) =    -44.95218  eV     2   -->   2 G_2            
     e( 19 - 20) =    -44.93112  eV     2   -->   2 G_2            
     e( 21 - 22) =    -44.93013  eV     2   -->   2 G_2            
     e( 23 - 23) =    -34.51093  eV     1   --> G_2            
     e( 24 - 24) =    -34.51069  eV     1   --> G_2            
     e( 25 - 25) =    -32.06519  eV     1   --> G_2            
     e( 26 - 26) =    -32.06500  eV     1   --> G_2            
     e( 27 - 27) =    -31.95859  eV     1   --> G_2            
     e( 28 - 28) =    -31.95807  eV     1   --> G_2            
     e( 29 - 29) =    -11.97582  eV     1   --> G_2            
     e( 30 - 30) =    -11.97543  eV     1   --> G_2            
     e( 31 - 32) =    -11.02838  eV     2   -->   2 G_2            
     e( 33 - 33) =     -3.14364  eV     1   --> G_2            
     e( 34 - 34) =     -3.14314  eV     1   --> G_2            
     e( 35 - 35) =     -0.38571  eV     1   --> G_2            
     e( 36 - 36) =     -0.38318  eV     1   --> G_2            
     e( 37 - 37) =     -0.13806  eV     1   --> G_2            
     e( 38 - 38) =     -0.10664  eV     1   --> G_2            
     e( 39 - 39) =      0.06533  eV     1   --> G_2            
     e( 40 - 40) =      0.09090  eV     1   --> G_2            
     e( 41 - 41) =      0.64072  eV     1   --> G_2            
     e( 42 - 42) =      0.72537  eV     1   --> G_2            
     e( 43 - 43) =      1.07500  eV     1   --> G_2            
     e( 44 - 44) =      1.15971  eV     1   --> G_2            
     e( 45 - 45) =      1.79464  eV     1   --> G_2            
     e( 46 - 46) =      1.79579  eV     1   --> G_2            
     e( 47 - 47) =      4.53279  eV     1   --> G_2            
     e( 48 - 48) =      4.55803  eV     1   --> G_2            
     e( 49 - 49) =      4.61656  eV     1   --> G_2            
     e( 50 - 50) =      4.63442  eV     1   --> G_2            
     e( 51 - 51) =      4.95199  eV     1   --> G_2            
     e( 52 - 52) =      4.97561  eV     1   --> G_2            
     e( 53 - 53) =      5.09766  eV     1   --> G_2            
     e( 54 - 54) =      5.11950  eV     1   --> G_2            
     e( 55 - 55) =      6.91608  eV     1   --> G_2            
     e( 56 - 56) =      6.91660  eV     1   --> G_2            
     e( 57 - 57) =      7.50159  eV     1   --> G_2            
     e( 58 - 58) =      7.50211  eV     1   --> G_2            
     e( 59 - 59) =      8.33971  eV     1   --> G_2            
     e( 60 - 60) =      8.34057  eV     1   --> G_2            
     e( 61 - 61) =      9.30908  eV     1   --> G_2            
     e( 62 - 62) =      9.31058  eV     1   --> G_2            
     e( 63 - 63) =     11.12311  eV     1   --> G_2            
     e( 64 - 64) =     11.12455  eV     1   --> G_2            
     e( 65 - 65) =     11.34771  eV     1   --> G_2            
     e( 66 - 66) =     11.34840  eV     1   --> G_2            
     e( 67 - 67) =     12.16823  eV     1   --> G_2            
     e( 68 - 68) =     12.16929  eV     1   --> G_2            
     e( 69 - 69) =     13.11484  eV     1   --> G_2            
     e( 70 - 70) =     13.14842  eV     1   --> G_2            

 **************************************************************************

 **************************************************************************

                    xk=(   0.06116,   0.10594,   0.00000  )

     Band symmetry, C_1 (1)     double point group:

     e(  1 -  2) =    -58.74451  eV     2   -->   2 G_2            
     e(  3 -  4) =    -45.87763  eV     2   -->   2 G_2            
     e(  5 -  6) =    -45.87749  eV     2   -->   2 G_2            
     e(  7 -  8) =    -45.82885  eV     2   -->   2 G_2            
     e(  9 - 10) =    -45.82854  eV     2   -->   2 G_2            
     e( 11 - 12) =    -44.99376  eV     2   -->   2 G_2            
     e( 13 - 14) =    -44.99351  eV     2   -->   2 G_2            
     e( 15 - 16) =    -44.95292  eV     2   -->   2 G_2            
     e( 17 - 18) =    -44.95219  eV     2   -->   2 G_2            
     e( 19 - 20) =    -44.93111  eV     2   -->   2 G_2            
     e( 21 - 22) =    -44.93011  eV     2   -->   2 G_2            
     e( 23 - 23) =    -34.51238  eV     1   --> G_2            
     e( 24 - 24) =    -34.51205  eV     1   --> G_2            
     e( 25 - 25) =    -32.06582  eV     1   --> G_2            
     e( 26 - 26) =    -32.06556  eV     1   --> G_2            
     e( 27 - 27) =    -31.96210  eV     1   --> G_2            
     e( 28 - 28) =    -31.96136  eV     1   --> G_2            
     e( 29 - 29) =    -11.94537  eV     1   --> G_2            
     e( 30 - 30) =    -11.94481  eV     1   --> G_2            
     e( 31 - 32) =    -11.01172  eV     2   -->   2 G_2            
     e( 33 - 33) =     -3.10681  eV     1   --> G_2            
     e( 34 - 34) =     -3.10609  eV     1   --> G_2            
     e( 35 - 35) =     -0.45825  eV     1   --> G_2            
     e( 36 - 36) =     -0.45497  eV     1   --> G_2            
     e( 37 - 37) =     -0.19913  eV     1   --> G_2            
     e( 38 - 38) =     -0.16740  eV     1   --> G_2            
     e( 39 - 39) =      0.08480  eV     1   --> G_2            
     e( 40 - 40) =      0.11106  eV     1   --> G_2            
     e( 41 - 41) =      0.57989  eV     1   --> G_2            
     e( 42 - 42) =      0.67276  eV     1   --> G_2            
     e( 43 - 43) =      1.09315  eV     1   --> G_2            
     e( 44 - 44) =      1.18861  eV     1   --> G_2            
     e( 45 - 45) =      1.77997  eV     1   --> G_2            
     e( 46 - 46) =      1.78133  eV     1   --> G_2            
     e( 47 - 47) =      4.47563  eV     1   --> G_2            
     e( 48 - 48) =      4.50496  eV     1   --> G_2            
     e( 49 - 49) =      4.52955  eV     1   --> G_2            
     e( 50 - 50) =      4.54996  eV     1   --> G_2            
     e( 51 - 51) =      4.90152  eV     1   --> G_2            
     e( 52 - 52) =      4.92797  eV     1   --> G_2            
     e( 53 - 53) =      5.13521  eV     1   --> G_2            
     e( 54 - 54) =      5.15806  eV     1   --> G_2            
     e( 55 - 55) =      6.96875  eV     1   --> G_2            
     e( 56 - 56) =      6.96937  eV     1   --> G_2            
     e( 57 - 57) =      7.54506  eV     1   --> G_2            
     e( 58 - 58) =      7.54574  eV     1   --> G_2            
     e( 59 - 59) =      8.44132  eV     1   --> G_2            
     e( 60 - 60) =      8.44215  eV     1   --> G_2            
     e( 61 - 61) =      9.38450  eV     1   --> G_2            
     e( 62 - 62) =      9.38666  eV     1   --> G_2            
     e( 63 - 63) =     11.20164  eV     1   --> G_2            
     e( 64 - 64) =     11.20345  eV     1   --> G_2            
     e( 65 - 66) =     11.45930  eV     2   -->   2 G_2            
     e( 67 - 67) =     12.08921  eV     1   --> G_2            
     e( 68 - 68) =     12.09146  eV     1   --> G_2            
     e( 69 - 69) =     13.13771  eV     1   --> G_2            
     e( 70 - 70) =     13.17321  eV     1   --> G_2            

 **************************************************************************

 **************************************************************************

                    xk=(   0.06796,   0.11771,   0.00000  )

     Band symmetry, C_1 (1)     double point group:

     e(  1 -  2) =    -58.74401  eV     2   -->   2 G_2            
     e(  3 -  4) =    -45.87759  eV     2   -->   2 G_2            
     e(  5 -  6) =    -45.87747  eV     2   -->   2 G_2            
     e(  7 -  8) =    -45.82885  eV     2   -->   2 G_2            
     e(  9 - 10) =    -45.82852  eV     2   -->   2 G_2            
     e( 11 - 12) =    -44.99371  eV     2   -->   2 G_2            
     e( 13 - 14) =    -44.99346  eV     2   -->   2 G_2            
     e( 15 - 16) =    -44.95293  eV     2   -->   2 G_2            
     e( 17 - 18) =    -44.95221  eV     2   -->   2 G_2            
     e( 19 - 20) =    -44.93110  eV     2   -->   2 G_2            
     e( 21 - 22) =    -44.93008  eV     2   -->   2 G_2            
     e( 23 - 23) =    -34.51400  eV     1   --> G_2            
     e( 24 - 24) =    -34.51354  eV     1   --> G_2            
     e( 25 - 25) =    -32.06655  eV     1   --> G_2            
     e( 26 - 26) =    -32.06620  eV     1   --> G_2            
     e( 27 - 27) =    -31.96591  eV     1   --> G_2            
     e( 28 - 28) =    -31.96491  eV     1   --> G_2            
     e( 29 - 29) =    -11.91163  eV     1   --> G_2            
     e( 30 - 30) =    -11.91088  eV     1   --> G_2            
     e( 31 - 32) =    -10.99326  eV     2   -->   2 G_2            
     e( 33 - 33) =     -3.06646  eV     1   --> G_2            
     e( 34 - 34) =     -3.06545  eV     1   --> G_2            
     e( 35 - 35) =     -0.53629  eV     1   --> G_2            
     e( 36 - 36) =     -0.53229  eV     1   --> G_2            
     e( 37 - 37) =     -0.26557  eV     1   --> G_2            
     e( 38 - 38) =     -0.23389  eV     1   --> G_2            
     e( 39 - 39) =      0.11117  eV     1   --> G_2            
     e( 40 - 40) =      0.13836  eV     1   --> G_2            
     e( 41 - 41) =      0.51129  eV     1   --> G_2            
     e( 42 - 42) =      0.61039  eV     1   --> G_2            
     e( 43 - 43) =      1.10983  eV     1   --> G_2            
     e( 44 - 44) =      1.21501  eV     1   --> G_2            
     e( 45 - 45) =      1.76220  eV     1   --> G_2            
     e( 46 - 46) =      1.76364  eV     1   --> G_2            
     e( 47 - 47) =      4.41983  eV     1   --> G_2            
     e( 48 - 48) =      4.43786  eV     1   --> G_2            
     e( 49 - 49) =      4.45849  eV     1   --> G_2            
     e( 50 - 50) =      4.46609  eV     1   --> G_2            
     e( 51 - 51) =      4.84712  eV     1   --> G_2            
     e( 52 - 52) =      4.87693  eV     1   --> G_2            
     e( 53 - 53) =      5.17845  eV     1   --> G_2            
     e( 54 - 54) =      5.20224  eV     1   --> G_2            
     e( 55 - 55) =      7.02415  eV     1   --> G_2            
     e( 56 - 56) =      7.02484  eV     1   --> G_2            
     e( 57 - 57) =      7.59313  eV     1   --> G_2            
     e( 58 - 58) =      7.59396  eV     1   --> G_2            
     e( 59 - 59) =      8.54385  eV     1   --> G_2            
     e( 60 - 60) =      8.54455  eV     1   --> G_2            
     e( 61 - 61) =      9.47145  eV     1   --> G_2            
     e( 62 - 62) =      9.47437  eV     1   --> G_2            
     e( 63 - 63) =     11.26138  eV     1   --> G_2            
     e( 64 - 64) =     11.26334  eV     1   --> G_2            
     e( 65 - 65) =     11.59370  eV     1   --> G_2            
     e( 66 - 66) =     11.59536  eV     1   --> G_2            
     e( 67 - 67) =     12.01189  eV     1   --> G_2            
     e( 68 - 68) =     12.01532  eV     1   --> G_2            
     e( 69 - 69) =     13.15781  eV     1   --> G_2            
     e( 70 - 70) =     13.19574  eV     1   --> G_2            

 **************************************************************************

 **************************************************************************

                    xk=(   0.07476,   0.12948,   0.00000  )

     Band symmetry, C_1 (1)     double point group:

     e(  1 -  2) =    -58.74347  eV     2   -->   2 G_2            
     e(  3 -  6) =    -45.87755  eV     4   -->   4 G_2            
     e(  7 -  8) =    -45.82886  eV     2   -->   2 G_2            
     e(  9 - 10) =    -45.82851  eV     2   -->   2 G_2            
     e( 11 - 12) =    -44.99364  eV     2   -->   2 G_2            
     e( 13 - 14) =    -44.99342  eV     2   -->   2 G_2            
     e( 15 - 16) =    -44.95294  eV     2   -->   2 G_2            
     e( 17 - 18) =    -44.95223  eV     2   -->   2 G_2            
     e( 19 - 20) =    -44.93108  eV     2   -->   2 G_2            
     e( 21 - 22) =    -44.93006  eV     2   -->   2 G_2            
     e( 23 - 23) =    -34.51576  eV     1   --> G_2            
     e( 24 - 24) =    -34.51516  eV     1   --> G_2            
     e( 25 - 25) =    -32.06740  eV     1   --> G_2            
     e( 26 - 26) =    -32.06694  eV     1   --> G_2            
     e( 27 - 27) =    -31.97000  eV     1   --> G_2            
     e( 28 - 28) =    -31.96869  eV     1   --> G_2            
     e( 29 - 29) =    -11.87472  eV     1   --> G_2            
     e( 30 - 30) =    -11.87371  eV     1   --> G_2            
     e( 31 - 31) =    -10.97306  eV     1   --> G_2            
     e( 32 - 32) =    -10.97293  eV     1   --> G_2            
     e( 33 - 33) =     -3.02288  eV     1   --> G_2            
     e( 34 - 34) =     -3.02151  eV     1   --> G_2            
     e( 35 - 35) =     -0.61901  eV     1   --> G_2            
     e( 36 - 36) =     -0.61436  eV     1   --> G_2            
     e( 37 - 37) =     -0.33442  eV     1   --> G_2            
     e( 38 - 38) =     -0.30289  eV     1   --> G_2            
     e( 39 - 39) =      0.14140  eV     1   --> G_2            
     e( 40 - 40) =      0.17015  eV     1   --> G_2            
     e( 41 - 41) =      0.43530  eV     1   --> G_2            
     e( 42 - 42) =      0.53882  eV     1   --> G_2            
     e( 43 - 43) =      1.12425  eV     1   --> G_2            
     e( 44 - 44) =      1.23827  eV     1   --> G_2            
     e( 45 - 45) =      1.74108  eV     1   --> G_2            
     e( 46 - 46) =      1.74238  eV     1   --> G_2            
     e( 47 - 47) =      4.35378  eV     1   --> G_2            
     e( 48 - 48) =      4.36664  eV     1   --> G_2            
     e( 49 - 49) =      4.38536  eV     1   --> G_2            
     e( 50 - 50) =      4.41010  eV     1   --> G_2            
     e( 51 - 51) =      4.78972  eV     1   --> G_2            
     e( 52 - 52) =      4.82327  eV     1   --> G_2            
     e( 53 - 53) =      5.22590  eV     1   --> G_2            
     e( 54 - 54) =      5.25045  eV     1   --> G_2            
     e( 55 - 55) =      7.08240  eV     1   --> G_2            
     e( 56 - 56) =      7.08313  eV     1   --> G_2            
     e( 57 - 57) =      7.64571  eV     1   --> G_2            
     e( 58 - 58) =      7.64669  eV     1   --> G_2            
     e( 59 - 59) =      8.64545  eV     1   --> G_2            
     e( 60 - 60) =      8.64588  eV     1   --> G_2            
     e( 61 - 61) =      9.56996  eV     1   --> G_2            
     e( 62 - 62) =      9.57371  eV     1   --> G_2            
     e( 63 - 63) =     11.31290  eV     1   --> G_2            
     e( 64 - 64) =     11.31505  eV     1   --> G_2            
     e( 65 - 65) =     11.73209  eV     1   --> G_2            
     e( 66 - 66) =     11.73782  eV     1   --> G_2            
     e( 67 - 67) =     11.93965  eV     1   --> G_2            
     e( 68 - 68) =     11.94320  eV     1   --> G_2            
     e( 69 - 69) =     13.17342  eV     1   --> G_2            
     e( 70 - 70) =     13.21434  eV     1   --> G_2            

 **************************************************************************

 **************************************************************************

                    xk=(   0.08155,   0.14125,   0.00000  )

     Band symmetry, C_1 (1)     double point group:

     e(  1 -  2) =    -58.74289  eV     2   -->   2 G_2            
     e(  3 -  6) =    -45.87751  eV     4   -->   4 G_2            
     e(  7 -  8) =    -45.82886  eV     2   -->   2 G_2            
     e(  9 - 10) =    -45.82850  eV     2   -->   2 G_2            
     e( 11 - 12) =    -44.99358  eV     2   -->   2 G_2            
     e( 13 - 14) =    -44.99337  eV     2   -->   2 G_2            
     e( 15 - 16) =    -44.95295  eV     2   -->   2 G_2            
     e( 17 - 18) =    -44.95226  eV     2   -->   2 G_2            
     e( 19 - 20) =    -44.93107  eV     2   -->   2 G_2            
     e( 21 - 22) =    -44.93003  eV     2   -->   2 G_2            
     e( 23 - 23) =    -34.51766  eV     1   --> G_2            
     e( 24 - 24) =    -34.51689  eV     1   --> G_2            
     e( 25 - 25) =    -32.06837  eV     1   --> G_2            
     e( 26 - 26) =    -32.06778  eV     1   --> G_2            
     e( 27 - 27) =    -31.97433  eV     1   --> G_2            
     e( 28 - 28) =    -31.97266  eV     1   --> G_2            
     e( 29 - 29) =    -11.83473  eV     1   --> G_2            
     e( 30 - 30) =    -11.83343  eV     1   --> G_2            
     e( 31 - 31) =    -10.95118  eV     1   --> G_2            
     e( 32 - 32) =    -10.95101  eV     1   --> G_2            
     e( 33 - 33) =     -2.97641  eV     1   --> G_2            
     e( 34 - 34) =     -2.97459  eV     1   --> G_2            
     e( 35 - 35) =     -0.70556  eV     1   --> G_2            
     e( 36 - 36) =     -0.70042  eV     1   --> G_2            
     e( 37 - 37) =     -0.40418  eV     1   --> G_2            
     e( 38 - 38) =     -0.37295  eV     1   --> G_2            
     e( 39 - 39) =      0.17407  eV     1   --> G_2            
     e( 40 - 40) =      0.20501  eV     1   --> G_2            
     e( 41 - 41) =      0.35242  eV     1   --> G_2            
     e( 42 - 42) =      0.45865  eV     1   --> G_2            
     e( 43 - 43) =      1.13589  eV     1   --> G_2            
     e( 44 - 44) =      1.25795  eV     1   --> G_2            
     e( 45 - 45) =      1.71648  eV     1   --> G_2            
     e( 46 - 46) =      1.71728  eV     1   --> G_2            
     e( 47 - 47) =      4.27211  eV     1   --> G_2            
     e( 48 - 48) =      4.30333  eV     1   --> G_2            
     e( 49 - 49) =      4.32340  eV     1   --> G_2            
     e( 50 - 50) =      4.36786  eV     1   --> G_2            
     e( 51 - 51) =      4.73004  eV     1   --> G_2            
     e( 52 - 52) =      4.76765  eV     1   --> G_2            
     e( 53 - 53) =      5.27653  eV     1   --> G_2            
     e( 54 - 54) =      5.30161  eV     1   --> G_2            
     e( 55 - 55) =      7.14365  eV     1   --> G_2            
     e( 56 - 56) =      7.14437  eV     1   --> G_2            
     e( 57 - 57) =      7.70273  eV     1   --> G_2            
     e( 58 - 58) =      7.70386  eV     1   --> G_2            
     e( 59 - 60) =      8.74488  eV     2   -->   2 G_2            
     e( 61 - 61) =      9.67948  eV     1   --> G_2            
     e( 62 - 62) =      9.68402  eV     1   --> G_2            
     e( 63 - 63) =     11.36134  eV     1   --> G_2            
     e( 64 - 64) =     11.36384  eV     1   --> G_2            
     e( 65 - 65) =     11.82154  eV     1   --> G_2            
     e( 66 - 66) =     11.83966  eV     1   --> G_2            
     e( 67 - 67) =     11.90964  eV     1   --> G_2            
     e( 68 - 68) =     11.91273  eV     1   --> G_2            
     e( 69 - 69) =     13.10937  eV     1   --> G_2            
     e( 70 - 70) =     13.13017  eV     1   --> G_2            

 **************************************************************************

 **************************************************************************

                    xk=(   0.08835,   0.15302,   0.00000  )

     Band symmetry, C_1 (1)     double point group:

     e(  1 -  2) =    -58.74228  eV     2   -->   2 G_2            
     e(  3 -  6) =    -45.87746  eV     4   -->   4 G_2            
     e(  7 -  8) =    -45.82887  eV     2   -->   2 G_2            
     e(  9 - 10) =    -45.82849  eV     2   -->   2 G_2            
     e( 11 - 12) =    -44.99351  eV     2   -->   2 G_2            
     e( 13 - 14) =    -44.99332  eV     2   -->   2 G_2            
     e( 15 - 15) =    -44.95296  eV     1   --> G_2            
     e( 16 - 16) =    -44.95285  eV     1   --> G_2            
     e( 17 - 18) =    -44.95228  eV     2   -->   2 G_2            
     e( 19 - 20) =    -44.93105  eV     2   -->   2 G_2            
     e( 21 - 22) =    -44.93000  eV     2   -->   2 G_2            
     e( 23 - 23) =    -34.51970  eV     1   --> G_2            
     e( 24 - 24) =    -34.51873  eV     1   --> G_2            
     e( 25 - 25) =    -32.06947  eV     1   --> G_2            
     e( 26 - 26) =    -32.06875  eV     1   --> G_2            
     e( 27 - 27) =    -31.97886  eV     1   --> G_2            
     e( 28 - 28) =    -31.97678  eV     1   --> G_2            
     e( 29 - 29) =    -11.79179  eV     1   --> G_2            
     e( 30 - 30) =    -11.79014  eV     1   --> G_2            
     e( 31 - 31) =    -10.92768  eV     1   --> G_2            
     e( 32 - 32) =    -10.92747  eV     1   --> G_2            
     e( 33 - 33) =     -2.92746  eV     1   --> G_2            
     e( 34 - 34) =     -2.92508  eV     1   --> G_2            
     e( 35 - 35) =     -0.79503  eV     1   --> G_2            
     e( 36 - 36) =     -0.78963  eV     1   --> G_2            
     e( 37 - 37) =     -0.47399  eV     1   --> G_2            
     e( 38 - 38) =     -0.44334  eV     1   --> G_2            
     e( 39 - 39) =      0.20814  eV     1   --> G_2            
     e( 40 - 40) =      0.24187  eV     1   --> G_2            
     e( 41 - 41) =      0.26329  eV     1   --> G_2            
     e( 42 - 42) =      0.37065  eV     1   --> G_2            
     e( 43 - 43) =      1.14435  eV     1   --> G_2            
     e( 44 - 44) =      1.27374  eV     1   --> G_2            
     e( 45 - 45) =      1.68820  eV     1   --> G_2            
     e( 46 - 46) =      1.68839  eV     1   --> G_2            
     e( 47 - 47) =      4.19490  eV     1   --> G_2            
     e( 48 - 48) =      4.23054  eV     1   --> G_2            
     e( 49 - 49) =      4.28164  eV     1   --> G_2            
     e( 50 - 50) =      4.33181  eV     1   --> G_2            
     e( 51 - 51) =      4.66895  eV     1   --> G_2            
     e( 52 - 52) =      4.71088  eV     1   --> G_2            
     e( 53 - 53) =      5.32947  eV     1   --> G_2            
     e( 54 - 54) =      5.35483  eV     1   --> G_2            
     e( 55 - 55) =      7.20806  eV     1   --> G_2            
     e( 56 - 56) =      7.20874  eV     1   --> G_2            
     e( 57 - 57) =      7.76410  eV     1   --> G_2            
     e( 58 - 58) =      7.76537  eV     1   --> G_2            
     e( 59 - 59) =      8.84128  eV     1   --> G_2            
     e( 60 - 60) =      8.84161  eV     1   --> G_2            
     e( 61 - 61) =      9.79871  eV     1   --> G_2            
     e( 62 - 62) =      9.80386  eV     1   --> G_2            
     e( 63 - 63) =     11.40826  eV     1   --> G_2            
     e( 64 - 64) =     11.41138  eV     1   --> G_2            
     e( 65 - 65) =     11.77366  eV     1   --> G_2            
     e( 66 - 66) =     11.79032  eV     1   --> G_2            
     e( 67 - 67) =     12.00663  eV     1   --> G_2            
     e( 68 - 68) =     12.01260  eV     1   --> G_2            
     e( 69 - 69) =     13.00334  eV     1   --> G_2            
     e( 70 - 70) =     13.03068  eV     1   --> G_2            

 **************************************************************************

 **************************************************************************

                    xk=(   0.09514,   0.16479,   0.00000  )

     Band symmetry, C_1 (1)     double point group:

     e(  1 -  2) =    -58.74163  eV     2   -->   2 G_2            
     e(  3 -  6) =    -45.87741  eV     4   -->   4 G_2            
     e(  7 -  8) =    -45.82887  eV     2   -->   2 G_2            
     e(  9 - 10) =    -45.82848  eV     2   -->   2 G_2            
     e( 11 - 12) =    -44.99343  eV     2   -->   2 G_2            
     e( 13 - 14) =    -44.99327  eV     2   -->   2 G_2            
     e( 15 - 15) =    -44.95297  eV     1   --> G_2            
     e( 16 - 16) =    -44.95283  eV     1   --> G_2            
     e( 17 - 18) =    -44.95231  eV     2   -->   2 G_2            
     e( 19 - 20) =    -44.93104  eV     2   -->   2 G_2            
     e( 21 - 22) =    -44.92997  eV     2   -->   2 G_2            
     e( 23 - 23) =    -34.52187  eV     1   --> G_2            
     e( 24 - 24) =    -34.52067  eV     1   --> G_2            
     e( 25 - 25) =    -32.07071  eV     1   --> G_2            
     e( 26 - 26) =    -32.06986  eV     1   --> G_2            
     e( 27 - 27) =    -31.98354  eV     1   --> G_2            
     e( 28 - 28) =    -31.98101  eV     1   --> G_2            
     e( 29 - 29) =    -11.74604  eV     1   --> G_2            
     e( 30 - 30) =    -11.74398  eV     1   --> G_2            
     e( 31 - 31) =    -10.90264  eV     1   --> G_2            
     e( 32 - 32) =    -10.90239  eV     1   --> G_2            
     e( 33 - 33) =     -2.87648  eV     1   --> G_2            
     e( 34 - 34) =     -2.87343  eV     1   --> G_2            
     e( 35 - 35) =     -0.88651  eV     1   --> G_2            
     e( 36 - 36) =     -0.88114  eV     1   --> G_2            
     e( 37 - 37) =     -0.54331  eV     1   --> G_2            
     e( 38 - 38) =     -0.51364  eV     1   --> G_2            
     e( 39 - 39) =      0.16838  eV     1   --> G_2            
     e( 40 - 40) =      0.24294  eV     1   --> G_2            
     e( 41 - 41) =      0.27079  eV     1   --> G_2            
     e( 42 - 42) =      0.28468  eV     1   --> G_2            
     e( 43 - 43) =      1.14936  eV     1   --> G_2            
     e( 44 - 44) =      1.28545  eV     1   --> G_2            
     e( 45 - 45) =      1.65522  eV     1   --> G_2            
     e( 46 - 46) =      1.65705  eV     1   --> G_2            
     e( 47 - 47) =      4.12297  eV     1   --> G_2            
     e( 48 - 48) =      4.16192  eV     1   --> G_2            
     e( 49 - 49) =      4.24777  eV     1   --> G_2            
     e( 50 - 50) =      4.30245  eV     1   --> G_2            
     e( 51 - 51) =      4.60747  eV     1   --> G_2            
     e( 52 - 52) =      4.65388  eV     1   --> G_2            
     e( 53 - 53) =      5.38393  eV     1   --> G_2            
     e( 54 - 54) =      5.40933  eV     1   --> G_2            
     e( 55 - 55) =      7.27576  eV     1   --> G_2            
     e( 56 - 56) =      7.27634  eV     1   --> G_2            
     e( 57 - 57) =      7.82973  eV     1   --> G_2            
     e( 58 - 58) =      7.83111  eV     1   --> G_2            
     e( 59 - 59) =      8.93497  eV     1   --> G_2            
     e( 60 - 60) =      8.93571  eV     1   --> G_2            
     e( 61 - 61) =      9.92561  eV     1   --> G_2            
     e( 62 - 62) =      9.93099  eV     1   --> G_2            
     e( 63 - 63) =     11.45339  eV     1   --> G_2            
     e( 64 - 64) =     11.45767  eV     1   --> G_2            
     e( 65 - 65) =     11.70777  eV     1   --> G_2            
     e( 66 - 66) =     11.72650  eV     1   --> G_2            
     e( 67 - 67) =     12.08714  eV     1   --> G_2            
     e( 68 - 68) =     12.09956  eV     1   --> G_2            
     e( 69 - 69) =     12.94051  eV     1   --> G_2            
     e( 70 - 70) =     12.97437  eV     1   --> G_2            

 **************************************************************************

 **************************************************************************

                    xk=(   0.10194,   0.17656,   0.00000  )

     Band symmetry, C_1 (1)     double point group:

     e(  1 -  2) =    -58.74095  eV     2   -->   2 G_2            
     e(  3 -  6) =    -45.87737  eV     4   -->   4 G_2            
     e(  7 -  8) =    -45.82888  eV     2   -->   2 G_2            
     e(  9 -  9) =    -45.82847  eV     1   --> G_2            
     e( 10 - 10) =    -45.82836  eV     1   --> G_2            
     e( 11 - 12) =    -44.99336  eV     2   -->   2 G_2            
     e( 13 - 14) =    -44.99322  eV     2   -->   2 G_2            
     e( 15 - 15) =    -44.95299  eV     1   --> G_2            
     e( 16 - 16) =    -44.95282  eV     1   --> G_2            
     e( 17 - 18) =    -44.95233  eV     2   -->   2 G_2            
     e( 19 - 20) =    -44.93102  eV     2   -->   2 G_2            
     e( 21 - 22) =    -44.92994  eV     2   -->   2 G_2            
     e( 23 - 23) =    -34.52415  eV     1   --> G_2            
     e( 24 - 24) =    -34.52269  eV     1   --> G_2            
     e( 25 - 25) =    -32.07211  eV     1   --> G_2            
     e( 26 - 26) =    -32.07112  eV     1   --> G_2            
     e( 27 - 27) =    -31.98833  eV     1   --> G_2            
     e( 28 - 28) =    -31.98530  eV     1   --> G_2            
     e( 29 - 29) =    -11.69762  eV     1   --> G_2            
     e( 30 - 30) =    -11.69509  eV     1   --> G_2            
     e( 31 - 31) =    -10.87615  eV     1   --> G_2            
     e( 32 - 32) =    -10.87584  eV     1   --> G_2            
     e( 33 - 33) =     -2.82404  eV     1   --> G_2            
     e( 34 - 34) =     -2.82016  eV     1   --> G_2            
     e( 35 - 35) =     -0.97901  eV     1   --> G_2            
     e( 36 - 36) =     -0.97402  eV     1   --> G_2            
     e( 37 - 37) =     -0.61180  eV     1   --> G_2            
     e( 38 - 38) =     -0.58369  eV     1   --> G_2            
     e( 39 - 39) =      0.06904  eV     1   --> G_2            
     e( 40 - 40) =      0.17321  eV     1   --> G_2            
     e( 41 - 41) =      0.27702  eV     1   --> G_2            
     e( 42 - 42) =      0.31929  eV     1   --> G_2            
     e( 43 - 43) =      1.15070  eV     1   --> G_2            
     e( 44 - 44) =      1.29297  eV     1   --> G_2            
     e( 45 - 45) =      1.61865  eV     1   --> G_2            
     e( 46 - 46) =      1.62291  eV     1   --> G_2            
     e( 47 - 47) =      4.05676  eV     1   --> G_2            
     e( 48 - 48) =      4.09833  eV     1   --> G_2            
     e( 49 - 49) =      4.22153  eV     1   --> G_2            
     e( 50 - 50) =      4.28004  eV     1   --> G_2            
     e( 51 - 51) =      4.54678  eV     1   --> G_2            
     e( 52 - 52) =      4.59777  eV     1   --> G_2            
     e( 53 - 53) =      5.43916  eV     1   --> G_2            
     e( 54 - 54) =      5.46436  eV     1   --> G_2            
     e( 55 - 55) =      7.34688  eV     1   --> G_2            
     e( 56 - 56) =      7.34731  eV     1   --> G_2            
     e( 57 - 57) =      7.89950  eV     1   --> G_2            
     e( 58 - 58) =      7.90098  eV     1   --> G_2            
     e( 59 - 59) =      9.02652  eV     1   --> G_2            
     e( 60 - 60) =      9.02764  eV     1   --> G_2            
     e( 61 - 61) =     10.05737  eV     1   --> G_2            
     e( 62 - 62) =     10.06237  eV     1   --> G_2            
     e( 63 - 63) =     11.49476  eV     1   --> G_2            
     e( 64 - 64) =     11.50163  eV     1   --> G_2            
     e( 65 - 65) =     11.64415  eV     1   --> G_2            
     e( 66 - 66) =     11.66546  eV     1   --> G_2            
     e( 67 - 67) =     12.12325  eV     1   --> G_2            
     e( 68 - 68) =     12.13930  eV     1   --> G_2            
     e( 69 - 69) =     12.93453  eV     1   --> G_2            
     e( 70 - 70) =     12.97258  eV     1   --> G_2            

 **************************************************************************

 **************************************************************************

                    xk=(   0.10873,   0.18833,   0.00000  )

     Band symmetry, C_1 (1)     double point group:

     e(  1 -  2) =    -58.74025  eV     2   -->   2 G_2            
     e(  3 -  6) =    -45.87732  eV     4   -->   4 G_2            
     e(  7 -  8) =    -45.82888  eV     2   -->   2 G_2            
     e(  9 -  9) =    -45.82846  eV     1   --> G_2            
     e( 10 - 10) =    -45.82833  eV     1   --> G_2            
     e( 11 - 14) =    -44.99328  eV     4   -->   4 G_2            
     e( 15 - 15) =    -44.95301  eV     1   --> G_2            
     e( 16 - 16) =    -44.95281  eV     1   --> G_2            
     e( 17 - 18) =    -44.95236  eV     2   -->   2 G_2            
     e( 19 - 20) =    -44.93100  eV     2   -->   2 G_2            
     e( 21 - 22) =    -44.92991  eV     2   -->   2 G_2            
     e( 23 - 23) =    -34.52653  eV     1   --> G_2            
     e( 24 - 24) =    -34.52478  eV     1   --> G_2            
     e( 25 - 25) =    -32.07366  eV     1   --> G_2            
     e( 26 - 26) =    -32.07255  eV     1   --> G_2            
     e( 27 - 27) =    -31.99318  eV     1   --> G_2            
     e( 28 - 28) =    -31.98962  eV     1   --> G_2            
     e( 29 - 29) =    -11.64668  eV     1   --> G_2            
     e( 30 - 30) =    -11.64362  eV     1   --> G_2            
     e( 31 - 31) =    -10.84828  eV     1   --> G_2            
     e( 32 - 32) =    -10.84791  eV     1   --> G_2            
     e( 33 - 33) =     -2.77080  eV     1   --> G_2            
     e( 34 - 34) =     -2.76592  eV     1   --> G_2            
     e( 35 - 35) =     -1.07148  eV     1   --> G_2            
     e( 36 - 36) =     -1.06727  eV     1   --> G_2            
     e( 37 - 37) =     -0.67929  eV     1   --> G_2            
     e( 38 - 38) =     -0.65356  eV     1   --> G_2            
     e( 39 - 39) =     -0.03381  eV     1   --> G_2            
     e( 40 - 40) =      0.06666  eV     1   --> G_2            
     e( 41 - 41) =      0.30941  eV     1   --> G_2            
     e( 42 - 42) =      0.35697  eV     1   --> G_2            
     e( 43 - 43) =      1.14818  eV     1   --> G_2            
     e( 44 - 44) =      1.29624  eV     1   --> G_2            
     e( 45 - 45) =      1.57912  eV     1   --> G_2            
     e( 46 - 46) =      1.58675  eV     1   --> G_2            
     e( 47 - 47) =      3.99637  eV     1   --> G_2            
     e( 48 - 48) =      4.03967  eV     1   --> G_2            
     e( 49 - 49) =      4.20302  eV     1   --> G_2            
     e( 50 - 50) =      4.26456  eV     1   --> G_2            
     e( 51 - 51) =      4.48824  eV     1   --> G_2            
     e( 52 - 52) =      4.54375  eV     1   --> G_2            
     e( 53 - 53) =      5.49446  eV     1   --> G_2            
     e( 54 - 54) =      5.51923  eV     1   --> G_2            
     e( 55 - 55) =      7.42149  eV     1   --> G_2            
     e( 56 - 56) =      7.42170  eV     1   --> G_2            
     e( 57 - 57) =      7.97330  eV     1   --> G_2            
     e( 58 - 58) =      7.97484  eV     1   --> G_2            
     e( 59 - 59) =      9.11664  eV     1   --> G_2            
     e( 60 - 60) =      9.11809  eV     1   --> G_2            
     e( 61 - 61) =     10.19030  eV     1   --> G_2            
     e( 62 - 62) =     10.19398  eV     1   --> G_2            
     e( 63 - 63) =     11.52414  eV     1   --> G_2            
     e( 64 - 64) =     11.54064  eV     1   --> G_2            
     e( 65 - 65) =     11.59153  eV     1   --> G_2            
     e( 66 - 66) =     11.61015  eV     1   --> G_2            
     e( 67 - 67) =     12.11691  eV     1   --> G_2            
     e( 68 - 68) =     12.13244  eV     1   --> G_2            
     e( 69 - 69) =     12.98374  eV     1   --> G_2            
     e( 70 - 70) =     13.02097  eV     1   --> G_2            

 **************************************************************************

 **************************************************************************

                    xk=(   0.11553,   0.20010,   0.00000  )

     Band symmetry, C_1 (1)     double point group:

     e(  1 -  2) =    -58.73952  eV     2   -->   2 G_2            
     e(  3 -  6) =    -45.87728  eV     4   -->   4 G_2            
     e(  7 -  8) =    -45.82889  eV     2   -->   2 G_2            
     e(  9 -  9) =    -45.82845  eV     1   --> G_2            
     e( 10 - 10) =    -45.82829  eV     1   --> G_2            
     e( 11 - 14) =    -44.99320  eV     4   -->   4 G_2            
     e( 15 - 15) =    -44.95303  eV     1   --> G_2            
     e( 16 - 16) =    -44.95279  eV     1   --> G_2            
     e( 17 - 18) =    -44.95239  eV     2   -->   2 G_2            
     e( 19 - 20) =    -44.93099  eV     2   -->   2 G_2            
     e( 21 - 21) =    -44.92987  eV     1   --> G_2            
     e( 22 - 22) =    -44.92977  eV     1   --> G_2            
     e( 23 - 23) =    -34.52901  eV     1   --> G_2            
     e( 24 - 24) =    -34.52694  eV     1   --> G_2            
     e( 25 - 25) =    -32.07538  eV     1   --> G_2            
     e( 26 - 26) =    -32.07416  eV     1   --> G_2            
     e( 27 - 27) =    -31.99804  eV     1   --> G_2            
     e( 28 - 28) =    -31.99393  eV     1   --> G_2            
     e( 29 - 29) =    -11.59339  eV     1   --> G_2            
     e( 30 - 30) =    -11.58974  eV     1   --> G_2            
     e( 31 - 31) =    -10.81914  eV     1   --> G_2            
     e( 32 - 32) =    -10.81870  eV     1   --> G_2            
     e( 33 - 33) =     -2.71758  eV     1   --> G_2            
     e( 34 - 34) =     -2.71149  eV     1   --> G_2            
     e( 35 - 35) =     -1.16280  eV     1   --> G_2            
     e( 36 - 36) =     -1.15981  eV     1   --> G_2            
     e( 37 - 37) =     -0.74577  eV     1   --> G_2            
     e( 38 - 38) =     -0.72355  eV     1   --> G_2            
     e( 39 - 39) =     -0.13876  eV     1   --> G_2            
     e( 40 - 40) =     -0.04391  eV     1   --> G_2            
     e( 41 - 41) =      0.33868  eV     1   --> G_2            
     e( 42 - 42) =      0.39270  eV     1   --> G_2            
     e( 43 - 43) =      1.14163  eV     1   --> G_2            
     e( 44 - 44) =      1.29526  eV     1   --> G_2            
     e( 45 - 45) =      1.53764  eV     1   --> G_2            
     e( 46 - 46) =      1.54970  eV     1   --> G_2            
     e( 47 - 47) =      3.94169  eV     1   --> G_2            
     e( 48 - 48) =      3.98546  eV     1   --> G_2            
     e( 49 - 49) =      4.19218  eV     1   --> G_2            
     e( 50 - 50) =      4.25569  eV     1   --> G_2            
     e( 51 - 51) =      4.43333  eV     1   --> G_2            
     e( 52 - 52) =      4.49321  eV     1   --> G_2            
     e( 53 - 53) =      5.54919  eV     1   --> G_2            
     e( 54 - 54) =      5.57331  eV     1   --> G_2            
     e( 55 - 56) =      7.49960  eV     2   -->   2 G_2            
     e( 57 - 57) =      8.05097  eV     1   --> G_2            
     e( 58 - 58) =      8.05254  eV     1   --> G_2            
     e( 59 - 59) =      9.20606  eV     1   --> G_2            
     e( 60 - 60) =      9.20779  eV     1   --> G_2            
     e( 61 - 61) =     10.31941  eV     1   --> G_2            
     e( 62 - 62) =     10.32048  eV     1   --> G_2            
     e( 63 - 63) =     11.50695  eV     1   --> G_2            
     e( 64 - 64) =     11.55333  eV     1   --> G_2            
     e( 65 - 65) =     11.58148  eV     1   --> G_2            
     e( 66 - 66) =     11.58371  eV     1   --> G_2            
     e( 67 - 67) =     12.08685  eV     1   --> G_2            
     e( 68 - 68) =     12.09896  eV     1   --> G_2            
     e( 69 - 69) =     13.06913  eV     1   --> G_2            
     e( 70 - 70) =     13.08155  eV     1   --> G_2            

 **************************************************************************

 **************************************************************************

                    xk=(   0.12233,   0.21188,   0.00000  )

     Band symmetry, C_1 (1)     double point group:

     e(  1 -  2) =    -58.73878  eV     2   -->   2 G_2            
     e(  3 -  6) =    -45.87724  eV     4   -->   4 G_2            
     e(  7 -  8) =    -45.82889  eV     2   -->   2 G_2            
     e(  9 -  9) =    -45.82844  eV     1   --> G_2            
     e( 10 - 10) =    -45.82826  eV     1   --> G_2            
     e( 11 - 13) =    -44.99311  eV     3   -->   3 G_2            
     e( 14 - 14) =    -44.99294  eV     1   --> G_2            
     e( 15 - 15) =    -44.95305  eV     1   --> G_2            
     e( 16 - 16) =    -44.95277  eV     1   --> G_2            
     e( 17 - 17) =    -44.95242  eV     1   --> G_2            
     e( 18 - 18) =    -44.95231  eV     1   --> G_2            
     e( 19 - 20) =    -44.93097  eV     2   -->   2 G_2            
     e( 21 - 21) =    -44.92984  eV     1   --> G_2            
     e( 22 - 22) =    -44.92972  eV     1   --> G_2            
     e( 23 - 23) =    -34.53157  eV     1   --> G_2            
     e( 24 - 24) =    -34.52916  eV     1   --> G_2            
     e( 25 - 25) =    -32.07726  eV     1   --> G_2            
     e( 26 - 26) =    -32.07598  eV     1   --> G_2            
     e( 27 - 27) =    -32.00285  eV     1   --> G_2            
     e( 28 - 28) =    -31.99819  eV     1   --> G_2            
     e( 29 - 29) =    -11.53795  eV     1   --> G_2            
     e( 30 - 30) =    -11.53362  eV     1   --> G_2            
     e( 31 - 31) =    -10.78882  eV     1   --> G_2            
     e( 32 - 32) =    -10.78830  eV     1   --> G_2            
     e( 33 - 33) =     -2.66538  eV     1   --> G_2            
     e( 34 - 34) =     -2.65782  eV     1   --> G_2            
     e( 35 - 35) =     -1.25167  eV     1   --> G_2            
     e( 36 - 36) =     -1.25039  eV     1   --> G_2            
     e( 37 - 37) =     -0.81142  eV     1   --> G_2            
     e( 38 - 38) =     -0.79425  eV     1   --> G_2            
     e( 39 - 39) =     -0.24416  eV     1   --> G_2            
     e( 40 - 40) =     -0.15706  eV     1   --> G_2            
     e( 41 - 41) =      0.36316  eV     1   --> G_2            
     e( 42 - 42) =      0.42485  eV     1   --> G_2            
     e( 43 - 43) =      1.13093  eV     1   --> G_2            
     e( 44 - 44) =      1.29003  eV     1   --> G_2            
     e( 45 - 45) =      1.49558  eV     1   --> G_2            
     e( 46 - 46) =      1.51324  eV     1   --> G_2            
     e( 47 - 47) =      3.89242  eV     1   --> G_2            
     e( 48 - 48) =      3.93507  eV     1   --> G_2            
     e( 49 - 49) =      4.18877  eV     1   --> G_2            
     e( 50 - 50) =      4.25283  eV     1   --> G_2            
     e( 51 - 51) =      4.38350  eV     1   --> G_2            
     e( 52 - 52) =      4.44764  eV     1   --> G_2            
     e( 53 - 53) =      5.60272  eV     1   --> G_2            
     e( 54 - 54) =      5.62596  eV     1   --> G_2            
     e( 55 - 55) =      7.58101  eV     1   --> G_2            
     e( 56 - 56) =      7.58142  eV     1   --> G_2            
     e( 57 - 57) =      8.13236  eV     1   --> G_2            
     e( 58 - 58) =      8.13392  eV     1   --> G_2            
     e( 59 - 59) =      9.29545  eV     1   --> G_2            
     e( 60 - 60) =      9.29740  eV     1   --> G_2            
     e( 61 - 61) =     10.43449  eV     1   --> G_2            
     e( 62 - 62) =     10.43762  eV     1   --> G_2            
     e( 63 - 63) =     11.46685  eV     1   --> G_2            
     e( 64 - 64) =     11.52081  eV     1   --> G_2            
     e( 65 - 65) =     11.59693  eV     1   --> G_2            
     e( 66 - 66) =     11.59846  eV     1   --> G_2            
     e( 67 - 67) =     12.05382  eV     1   --> G_2            
     e( 68 - 68) =     12.06126  eV     1   --> G_2            
     e( 69 - 69) =     13.05836  eV     1   --> G_2            
     e( 70 - 70) =     13.08508  eV     1   --> G_2            

 **************************************************************************

 **************************************************************************

                    xk=(   0.12912,   0.22365,   0.00000  )

     Band symmetry, C_1 (1)     double point group:

     e(  1 -  2) =    -58.73802  eV     2   -->   2 G_2            
     e(  3 -  3) =    -45.87721  eV     1   --> G_2            
     e(  4 -  6) =    -45.87709  eV     3   -->   3 G_2            
     e(  7 -  8) =    -45.82890  eV     2   -->   2 G_2            
     e(  9 -  9) =    -45.82844  eV     1   --> G_2            
     e( 10 - 10) =    -45.82823  eV     1   --> G_2            
     e( 11 - 13) =    -44.99303  eV     3   -->   3 G_2            
     e( 14 - 14) =    -44.99286  eV     1   --> G_2            
     e( 15 - 15) =    -44.95308  eV     1   --> G_2            
     e( 16 - 16) =    -44.95275  eV     1   --> G_2            
     e( 17 - 17) =    -44.95245  eV     1   --> G_2            
     e( 18 - 18) =    -44.95233  eV     1   --> G_2            
     e( 19 - 20) =    -44.93095  eV     2   -->   2 G_2            
     e( 21 - 21) =    -44.92981  eV     1   --> G_2            
     e( 22 - 22) =    -44.92967  eV     1   --> G_2            
     e( 23 - 23) =    -34.53420  eV     1   --> G_2            
     e( 24 - 24) =    -34.53141  eV     1   --> G_2            
     e( 25 - 25) =    -32.07931  eV     1   --> G_2            
     e( 26 - 26) =    -32.07801  eV     1   --> G_2            
     e( 27 - 27) =    -32.00758  eV     1   --> G_2            
     e( 28 - 28) =    -32.00238  eV     1   --> G_2            
     e( 29 - 29) =    -11.48053  eV     1   --> G_2            
     e( 30 - 30) =    -11.47546  eV     1   --> G_2            
     e( 31 - 31) =    -10.75742  eV     1   --> G_2            
     e( 32 - 32) =    -10.75683  eV     1   --> G_2            
     e( 33 - 33) =     -2.61544  eV     1   --> G_2            
     e( 34 - 34) =     -2.60614  eV     1   --> G_2            
     e( 35 - 35) =     -1.33760  eV     1   --> G_2            
     e( 36 - 36) =     -1.33661  eV     1   --> G_2            
     e( 37 - 37) =     -0.87663  eV     1   --> G_2            
     e( 38 - 38) =     -0.86657  eV     1   --> G_2            
     e( 39 - 39) =     -0.34801  eV     1   --> G_2            
     e( 40 - 40) =     -0.27120  eV     1   --> G_2            
     e( 41 - 41) =      0.38100  eV     1   --> G_2            
     e( 42 - 42) =      0.45151  eV     1   --> G_2            
     e( 43 - 43) =      1.11603  eV     1   --> G_2            
     e( 44 - 44) =      1.28045  eV     1   --> G_2            
     e( 45 - 45) =      1.45469  eV     1   --> G_2            
     e( 46 - 46) =      1.47924  eV     1   --> G_2            
     e( 47 - 47) =      3.84826  eV     1   --> G_2            
     e( 48 - 48) =      3.88790  eV     1   --> G_2            
     e( 49 - 49) =      4.19242  eV     1   --> G_2            
     e( 50 - 50) =      4.25486  eV     1   --> G_2            
     e( 51 - 51) =      4.34008  eV     1   --> G_2            
     e( 52 - 52) =      4.40876  eV     1   --> G_2            
     e( 53 - 53) =      5.65450  eV     1   --> G_2            
     e( 54 - 54) =      5.67665  eV     1   --> G_2            
     e( 55 - 55) =      7.66595  eV     1   --> G_2            
     e( 56 - 56) =      7.66679  eV     1   --> G_2            
     e( 57 - 57) =      8.21727  eV     1   --> G_2            
     e( 58 - 58) =      8.21878  eV     1   --> G_2            
     e( 59 - 59) =      9.38535  eV     1   --> G_2            
     e( 60 - 60) =      9.38749  eV     1   --> G_2            
[...]
     e( 53 - 54) =      5.16923  eV     2   --> G_4            
     e( 55 - 56) =      6.71670  eV     2   --> G_3            
     e( 55 - 56) =      6.71670  eV     2   --> G_4            
     e( 57 - 58) =      7.36468  eV     2   --> G_3            
     e( 57 - 58) =      7.36468  eV     2   --> G_4            
     e( 59 - 60) =      7.95946  eV     2   --> G_3            
     e( 59 - 60) =      7.95946  eV     2   --> G_4            
     e( 61 - 62) =      9.09551  eV     2   --> G_3            
     e( 61 - 62) =      9.09551  eV     2   --> G_4            
     e( 63 - 64) =     10.64630  eV     2   --> G_3            
     e( 63 - 64) =     10.64630  eV     2   --> G_4            
     e( 65 - 66) =     11.15059  eV     2   --> G_3            
     e( 65 - 66) =     11.15059  eV     2   --> G_4            
     e( 67 - 68) =     12.50169  eV     2   --> G_3            
     e( 67 - 68) =     12.50169  eV     2   --> G_4            
     e( 69 - 70) =     13.00308  eV     2   --> G_3            
     e( 69 - 70) =     13.00308  eV     2   --> G_4            

 **************************************************************************

 **************************************************************************

                    xk=(   0.03061,   0.01767,   0.00000  )

     Band symmetry, C_s (m)     double point group:

     e(  1 -  2) =    -58.74654  eV     2   --> G_3            
     e(  1 -  2) =    -58.74654  eV     2   --> G_4            
     e(  3 -  4) =    -45.87779  eV     2   --> G_3            
     e(  3 -  4) =    -45.87779  eV     2   --> G_4            
     e(  5 -  6) =    -45.87760  eV     2   --> G_3            
     e(  5 -  6) =    -45.87760  eV     2   --> G_4            
     e(  7 -  8) =    -45.82882  eV     2   --> G_3            
     e(  7 -  8) =    -45.82882  eV     2   --> G_4            
     e(  9 - 10) =    -45.82860  eV     2   --> G_3            
     e(  9 - 10) =    -45.82860  eV     2   --> G_4            
     e( 11 - 12) =    -44.99400  eV     2   --> G_3            
     e( 11 - 12) =    -44.99400  eV     2   --> G_4            
     e( 13 - 14) =    -44.99368  eV     2   --> G_3            
     e( 13 - 14) =    -44.99368  eV     2   --> G_4            
     e( 15 - 16) =    -44.95290  eV     2   --> G_3            
     e( 15 - 16) =    -44.95290  eV     2   --> G_4            
     e( 17 - 18) =    -44.95212  eV     2   --> G_3            
     e( 17 - 18) =    -44.95212  eV     2   --> G_4            
     e( 19 - 20) =    -44.93116  eV     2   --> G_3            
     e( 19 - 20) =    -44.93116  eV     2   --> G_4            
     e( 21 - 22) =    -44.93022  eV     2   --> G_3            
     e( 21 - 22) =    -44.93022  eV     2   --> G_4            
     e( 23 - 24) =    -34.50592  eV     2   --> G_3            
     e( 23 - 24) =    -34.50592  eV     2   --> G_4            
     e( 25 - 26) =    -32.06328  eV     2   --> G_3            
     e( 25 - 26) =    -32.06328  eV     2   --> G_4            
     e( 27 - 28) =    -31.94619  eV     2   --> G_3            
     e( 27 - 28) =    -31.94619  eV     2   --> G_4            
     e( 29 - 30) =    -12.08022  eV     2   --> G_3            
     e( 29 - 30) =    -12.08022  eV     2   --> G_4            
     e( 31 - 32) =    -11.08547  eV     2   --> G_3            
     e( 31 - 32) =    -11.08547  eV     2   --> G_4            
     e( 33 - 34) =     -3.27248  eV     2   --> G_3            
     e( 33 - 34) =     -3.27248  eV     2   --> G_4            
     e( 35 - 36) =     -0.12524  eV     2   --> G_3            
     e( 35 - 36) =     -0.12524  eV     2   --> G_4            
     e( 37 - 38) =     -0.06306  eV     2   --> G_3            
     e( 37 - 38) =     -0.06306  eV     2   --> G_4            
     e( 39 - 40) =      0.23605  eV     2   --> G_3            
     e( 39 - 40) =      0.23605  eV     2   --> G_4            
     e( 41 - 42) =      0.81660  eV     2   --> G_3            
     e( 41 - 42) =      0.81660  eV     2   --> G_4            
     e( 43 - 44) =      1.01536  eV     2   --> G_3            
     e( 43 - 44) =      1.01536  eV     2   --> G_4            
     e( 45 - 46) =      1.83405  eV     2   --> G_3            
     e( 45 - 46) =      1.83405  eV     2   --> G_4            
     e( 47 - 48) =      4.75030  eV     2   --> G_3            
     e( 47 - 48) =      4.75030  eV     2   --> G_4            
     e( 49 - 50) =      4.98469  eV     2   --> G_3            
     e( 49 - 50) =      4.98469  eV     2   --> G_4            
     e( 51 - 52) =      5.01613  eV     2   --> G_3            
     e( 51 - 52) =      5.01613  eV     2   --> G_4            
     e( 53 - 54) =      5.19851  eV     2   --> G_3            
     e( 53 - 54) =      5.19851  eV     2   --> G_4            
     e( 55 - 56) =      6.69003  eV     2   --> G_3            
     e( 55 - 56) =      6.69003  eV     2   --> G_4            
     e( 57 - 58) =      7.35030  eV     2   --> G_3            
     e( 57 - 58) =      7.35030  eV     2   --> G_4            
     e( 59 - 60) =      7.91430  eV     2   --> G_3            
     e( 59 - 60) =      7.91430  eV     2   --> G_4            
     e( 61 - 62) =      9.07533  eV     2   --> G_3            
     e( 61 - 62) =      9.07533  eV     2   --> G_4            
     e( 63 - 64) =     10.58328  eV     2   --> G_3            
     e( 63 - 64) =     10.58328  eV     2   --> G_4            
     e( 65 - 66) =     11.13662  eV     2   --> G_3            
     e( 65 - 66) =     11.13662  eV     2   --> G_4            
     e( 67 - 68) =     12.55097  eV     2   --> G_3            
     e( 67 - 68) =     12.55097  eV     2   --> G_4            
     e( 69 - 70) =     12.97507  eV     2   --> G_3            
     e( 69 - 70) =     12.97507  eV     2   --> G_4            

 **************************************************************************

 **************************************************************************

                    xk=(   0.02041,   0.01178,   0.00000  )

     Band symmetry, C_s (m)     double point group:

     e(  1 -  2) =    -58.74664  eV     2   --> G_3            
     e(  1 -  2) =    -58.74664  eV     2   --> G_4            
     e(  3 -  4) =    -45.87780  eV     2   --> G_3            
     e(  3 -  4) =    -45.87780  eV     2   --> G_4            
     e(  5 -  6) =    -45.87761  eV     2   --> G_3            
     e(  5 -  6) =    -45.87761  eV     2   --> G_4            
     e(  7 -  8) =    -45.82882  eV     2   --> G_3            
     e(  7 -  8) =    -45.82882  eV     2   --> G_4            
     e(  9 - 10) =    -45.82860  eV     2   --> G_3            
     e(  9 - 10) =    -45.82860  eV     2   --> G_4            
     e( 11 - 12) =    -44.99401  eV     2   --> G_3            
     e( 11 - 12) =    -44.99401  eV     2   --> G_4            
     e( 13 - 14) =    -44.99369  eV     2   --> G_3            
     e( 13 - 14) =    -44.99369  eV     2   --> G_4            
     e( 15 - 16) =    -44.95290  eV     2   --> G_3            
     e( 15 - 16) =    -44.95290  eV     2   --> G_4            
     e( 17 - 18) =    -44.95211  eV     2   --> G_3            
     e( 17 - 18) =    -44.95211  eV     2   --> G_4            
     e( 19 - 20) =    -44.93116  eV     2   --> G_3            
     e( 19 - 20) =    -44.93116  eV     2   --> G_4            
     e( 21 - 22) =    -44.93022  eV     2   --> G_3            
     e( 21 - 22) =    -44.93022  eV     2   --> G_4            
     e( 23 - 24) =    -34.50560  eV     2   --> G_3            
     e( 23 - 24) =    -34.50560  eV     2   --> G_4            
     e( 25 - 26) =    -32.06317  eV     2   --> G_3            
     e( 25 - 26) =    -32.06317  eV     2   --> G_4            
     e( 27 - 28) =    -31.94536  eV     2   --> G_3            
     e( 27 - 28) =    -31.94536  eV     2   --> G_4            
     e( 29 - 30) =    -12.08718  eV     2   --> G_3            
     e( 29 - 30) =    -12.08718  eV     2   --> G_4            
     e( 31 - 32) =    -11.08928  eV     2   --> G_3            
     e( 31 - 32) =    -11.08928  eV     2   --> G_4            
     e( 33 - 34) =     -3.28120  eV     2   --> G_3            
     e( 33 - 34) =     -3.28120  eV     2   --> G_4            
     e( 35 - 36) =     -0.11075  eV     2   --> G_3            
     e( 35 - 36) =     -0.11075  eV     2   --> G_4            
     e( 37 - 38) =     -0.06400  eV     2   --> G_3            
     e( 37 - 38) =     -0.06400  eV     2   --> G_4            
     e( 39 - 40) =      0.26320  eV     2   --> G_3            
     e( 39 - 40) =      0.26320  eV     2   --> G_4            
     e( 41 - 42) =      0.81436  eV     2   --> G_3            
     e( 41 - 42) =      0.81436  eV     2   --> G_4            
     e( 43 - 44) =      1.01106  eV     2   --> G_3            
     e( 43 - 44) =      1.01106  eV     2   --> G_4            
     e( 45 - 46) =      1.83601  eV     2   --> G_3            
     e( 45 - 46) =      1.83601  eV     2   --> G_4            
     e( 47 - 48) =      4.75837  eV     2   --> G_3            
     e( 47 - 48) =      4.75837  eV     2   --> G_4            
     e( 49 - 50) =      5.00932  eV     2   --> G_3            
     e( 49 - 50) =      5.00932  eV     2   --> G_4            
     e( 51 - 52) =      5.02132  eV     2   --> G_3            
     e( 51 - 52) =      5.02132  eV     2   --> G_4            
     e( 53 - 54) =      5.22236  eV     2   --> G_3            
     e( 53 - 54) =      5.22236  eV     2   --> G_4            
     e( 55 - 56) =      6.66960  eV     2   --> G_3            
     e( 55 - 56) =      6.66960  eV     2   --> G_4            
     e( 57 - 58) =      7.33995  eV     2   --> G_3            
     e( 57 - 58) =      7.33995  eV     2   --> G_4            
     e( 59 - 60) =      7.88123  eV     2   --> G_3            
     e( 59 - 60) =      7.88123  eV     2   --> G_4            
     e( 61 - 62) =      9.06108  eV     2   --> G_3            
     e( 61 - 62) =      9.06108  eV     2   --> G_4            
     e( 63 - 64) =     10.53695  eV     2   --> G_3            
     e( 63 - 64) =     10.53695  eV     2   --> G_4            
     e( 65 - 66) =     11.12683  eV     2   --> G_3            
     e( 65 - 66) =     11.12683  eV     2   --> G_4            
     e( 67 - 68) =     12.59000  eV     2   --> G_3            
     e( 67 - 68) =     12.59000  eV     2   --> G_4            
     e( 69 - 70) =     12.95154  eV     2   --> G_3            
     e( 69 - 70) =     12.95154  eV     2   --> G_4            

 **************************************************************************

 **************************************************************************

                    xk=(   0.01020,   0.00589,   0.00000  )

     Band symmetry, C_s (m)     double point group:

     e(  1 -  2) =    -58.74671  eV     2   --> G_3            
     e(  1 -  2) =    -58.74671  eV     2   --> G_4            
     e(  3 -  4) =    -45.87781  eV     2   --> G_3            
     e(  3 -  4) =    -45.87781  eV     2   --> G_4            
     e(  5 -  6) =    -45.87761  eV     2   --> G_3            
     e(  5 -  6) =    -45.87761  eV     2   --> G_4            
     e(  7 -  8) =    -45.82882  eV     2   --> G_3            
     e(  7 -  8) =    -45.82882  eV     2   --> G_4            
     e(  9 - 10) =    -45.82860  eV     2   --> G_3            
     e(  9 - 10) =    -45.82860  eV     2   --> G_4            
     e( 11 - 12) =    -44.99402  eV     2   --> G_3            
     e( 11 - 12) =    -44.99402  eV     2   --> G_4            
     e( 13 - 14) =    -44.99369  eV     2   --> G_3            
     e( 13 - 14) =    -44.99369  eV     2   --> G_4            
     e( 15 - 16) =    -44.95290  eV     2   --> G_3            
     e( 15 - 16) =    -44.95290  eV     2   --> G_4            
     e( 17 - 18) =    -44.95211  eV     2   --> G_3            
     e( 17 - 18) =    -44.95211  eV     2   --> G_4            
     e( 19 - 20) =    -44.93116  eV     2   --> G_3            
     e( 19 - 20) =    -44.93116  eV     2   --> G_4            
     e( 21 - 22) =    -44.93023  eV     2   --> G_3            
     e( 21 - 22) =    -44.93023  eV     2   --> G_4            
     e( 23 - 24) =    -34.50540  eV     2   --> G_3            
     e( 23 - 24) =    -34.50540  eV     2   --> G_4            
     e( 25 - 26) =    -32.06311  eV     2   --> G_3            
     e( 25 - 26) =    -32.06311  eV     2   --> G_4            
     e( 27 - 28) =    -31.94485  eV     2   --> G_3            
     e( 27 - 28) =    -31.94485  eV     2   --> G_4            
     e( 29 - 30) =    -12.09136  eV     2   --> G_3            
     e( 29 - 30) =    -12.09136  eV     2   --> G_4            
     e( 31 - 32) =    -11.09156  eV     2   --> G_3            
     e( 31 - 32) =    -11.09156  eV     2   --> G_4            
     e( 33 - 34) =     -3.28645  eV     2   --> G_3            
     e( 33 - 34) =     -3.28645  eV     2   --> G_4            
     e( 35 - 36) =     -0.10415  eV     2   --> G_3            
     e( 35 - 36) =     -0.10415  eV     2   --> G_4            
     e( 37 - 38) =     -0.06253  eV     2   --> G_3            
     e( 37 - 38) =     -0.06253  eV     2   --> G_4            
     e( 39 - 40) =      0.28064  eV     2   --> G_3            
     e( 39 - 40) =      0.28064  eV     2   --> G_4            
     e( 41 - 42) =      0.81123  eV     2   --> G_3            
     e( 41 - 42) =      0.81123  eV     2   --> G_4            
     e( 43 - 44) =      1.00921  eV     2   --> G_3            
     e( 43 - 44) =      1.00921  eV     2   --> G_4            
     e( 45 - 46) =      1.83714  eV     2   --> G_3            
     e( 45 - 46) =      1.83714  eV     2   --> G_4            
     e( 47 - 48) =      4.76223  eV     2   --> G_3            
     e( 47 - 48) =      4.76223  eV     2   --> G_4            
     e( 49 - 50) =      5.02370  eV     2   --> G_3            
     e( 49 - 50) =      5.02370  eV     2   --> G_4            
     e( 51 - 52) =      5.02576  eV     2   --> G_3            
     e( 51 - 52) =      5.02576  eV     2   --> G_4            
     e( 53 - 54) =      5.23804  eV     2   --> G_3            
     e( 53 - 54) =      5.23804  eV     2   --> G_4            
     e( 55 - 56) =      6.65669  eV     2   --> G_3            
     e( 55 - 56) =      6.65669  eV     2   --> G_4            
     e( 57 - 58) =      7.33370  eV     2   --> G_3            
     e( 57 - 58) =      7.33370  eV     2   --> G_4            
     e( 59 - 60) =      7.86106  eV     2   --> G_3            
     e( 59 - 60) =      7.86106  eV     2   --> G_4            
     e( 61 - 62) =      9.05259  eV     2   --> G_3            
     e( 61 - 62) =      9.05259  eV     2   --> G_4            
     e( 63 - 64) =     10.50862  eV     2   --> G_3            
     e( 63 - 64) =     10.50862  eV     2   --> G_4            
     e( 65 - 66) =     11.12103  eV     2   --> G_3            
     e( 65 - 66) =     11.12103  eV     2   --> G_4            
     e( 67 - 68) =     12.61561  eV     2   --> G_3            
     e( 67 - 68) =     12.61561  eV     2   --> G_4            
     e( 69 - 70) =     12.93582  eV     2   --> G_3            
     e( 69 - 70) =     12.93582  eV     2   --> G_4            

 **************************************************************************

 **************************************************************************

                    xk=(   0.00000,   0.00000,   0.00000  )

     double point group C_3v (3m)  
     there are  6 classes and  3 irreducible representations
     the character table:

       E     -E    2C3   -2C3  3s_v  -3s_v
                                          
G_4    2.00 -2.00  1.00 -1.00  0.00  0.00
G_5    1.00 -1.00 -1.00  1.00  0.00  0.00
G_6    1.00 -1.00 -1.00  1.00  0.00  0.00

     imaginary part

       E     -E    2C3   -2C3  3s_v  -3s_v
                                          
G_4    0.00  0.00  0.00  0.00  0.00  0.00
G_5    0.00  0.00  0.00  0.00  1.00 -1.00
G_6    0.00  0.00  0.00  0.00 -1.00  1.00

     the symmetry operations in each class and the name of the first element:

     E             1
                                                                 
     -E           -1
                                                                 
     2C3           2    3
                                                                 
     -2C3         -2   -3
                                                                 
     3s_v          5    6   -4
                                                                 
     -3s_v         4   -5   -6
                                                                 

     Band symmetry, C_3v (3m)   double point group:

     e(  1 -  2) =    -58.74673  eV     2   --> G_4   L_6      
     e(  3 -  4) =    -45.87781  eV     2   --> G_5   L_4      
     e(  3 -  4) =    -45.87781  eV     2   --> G_6   L_5      
     e(  5 -  6) =    -45.87761  eV     2   --> G_5   L_4      
     e(  5 -  6) =    -45.87761  eV     2   --> G_6   L_5      
     e(  7 -  8) =    -45.82882  eV     2   --> G_4   L_6      
     e(  9 - 10) =    -45.82860  eV     2   --> G_4   L_6      
     e( 11 - 12) =    -44.99402  eV     2   --> G_4   L_6      
     e( 13 - 14) =    -44.99369  eV     2   --> G_4   L_6      
     e( 15 - 16) =    -44.95290  eV     2   --> G_5   L_4      
     e( 15 - 16) =    -44.95290  eV     2   --> G_6   L_5      
     e( 17 - 18) =    -44.95211  eV     2   --> G_5   L_4      
     e( 17 - 18) =    -44.95211  eV     2   --> G_6   L_5      
     e( 19 - 20) =    -44.93116  eV     2   --> G_4   L_6      
     e( 21 - 22) =    -44.93023  eV     2   --> G_4   L_6      
     e( 23 - 24) =    -34.50533  eV     2   --> G_4   L_6      
     e( 25 - 26) =    -32.06308  eV     2   --> G_4   L_6      
     e( 27 - 28) =    -31.94468  eV     2   --> G_5   L_4      
     e( 27 - 28) =    -31.94468  eV     2   --> G_6   L_5      
     e( 29 - 30) =    -12.09276  eV     2   --> G_4   L_6      
     e( 31 - 32) =    -11.09232  eV     2   --> G_4   L_6      
     e( 33 - 34) =     -3.28820  eV     2   --> G_4   L_6      
     e( 35 - 36) =     -0.10247  eV     2   --> G_4   L_6      
     e( 37 - 38) =     -0.06152  eV     2   --> G_5   L_4      
     e( 37 - 38) =     -0.06152  eV     2   --> G_6   L_5      
     e( 39 - 40) =      0.28666  eV     2   --> G_4   L_6      
     e( 41 - 42) =      0.80985  eV     2   --> G_4   L_6      
     e( 43 - 44) =      1.00873  eV     2   --> G_5   L_4      
     e( 43 - 44) =      1.00873  eV     2   --> G_6   L_5      
     e( 45 - 46) =      1.83752  eV     2   --> G_4   L_6      
     e( 47 - 48) =      4.76334  eV     2   --> G_4   L_6      
     e( 49 - 50) =      5.02735  eV     2   --> G_5   L_4      
     e( 49 - 50) =      5.02735  eV     2   --> G_6   L_5      
     e( 51 - 52) =      5.02855  eV     2   --> G_4   L_6      
     e( 53 - 54) =      5.24352  eV     2   --> G_5   L_4      
     e( 53 - 54) =      5.24352  eV     2   --> G_6   L_5      
     e( 55 - 56) =      6.65227  eV     2   --> G_4   L_6      
     e( 57 - 58) =      7.33161  eV     2   --> G_4   L_6      
     e( 59 - 60) =      7.85428  eV     2   --> G_4   L_6      
     e( 61 - 62) =      9.04977  eV     2   --> G_4   L_6      
     e( 63 - 64) =     10.49909  eV     2   --> G_4   L_6      
     e( 65 - 66) =     11.11911  eV     2   --> G_4   L_6      
     e( 67 - 68) =     12.62464  eV     2   --> G_4   L_6      
     e( 69 - 70) =     12.93027  eV     2   --> G_4   L_6      

 **************************************************************************
 
     BANDS        :   1m15.64s CPU   1m23.40s WALL

 
   This run was terminated on:  19:13:52   6Jul2023            

=------------------------------------------------------------------------------=
   JOB DONE.
=------------------------------------------------------------------------------=
