
     Program BANDS v.7.0 starts on  6Jul2023 at 23: 2:16 

     This program is part of the open-source Quantum ESPRESSO suite
     for quantum simulation of materials; please cite
         "P. Giannozzi et al., J. Phys.:Condens. Matter 21 395502 (2009);
         "P. Giannozzi et al., J. Phys.:Condens. Matter 29 465901 (2017);
         "P. Giannozzi et al., J. Chem. Phys. 152 154105 (2020);
          URL http://www.quantum-espresso.org", 
     in publications or presentations arising from this work. More details at
     http://www.quantum-espresso.org/quote

     Parallel version (MPI), running on   144 processors

     MPI processes distributed on     2 nodes
     K-points division:     npool     =       2
     R & G space division:  proc/nbgrp/npool/nimage =      72
     231818 MiB available memory on the printing compute node when the environment starts
 

     Reading xml data from directory:

     ./WS2.save/

     IMPORTANT: XC functional enforced from input :
     Exchange-correlation= PBE
                           (   1   4   3   4   0   0   0)
     Any further DFT definition will be discarded
     Please, verify this is what you really want

 
     Parallelization info
     --------------------
     sticks:   dense  smooth     PW     G-vecs:    dense   smooth      PW
     Min          13      13      3                 1991     1991     281
     Max          14      14      4                 2036     2036     322
     Sum        1003    1003    283               145281   145281   22155
 
     Using Slab Decomposition
 
     Reading collected, re-writing distributed wavefunctions
     high-symmetry point:  0.0000 0.0000 0.0000   x coordinate   0.0000
     high-symmetry point:  0.3330 0.5768 0.0000   x coordinate   0.6660
     high-symmetry point:  0.5000 0.2887 0.0000   x coordinate   0.9990
     high-symmetry point:  0.0000 0.0000 0.0000   x coordinate   1.5764

     Plottable bands (eV) written to file bands.dat.gnu
     Bands written to file bands.dat

 **************************************************************************

                    xk=(   0.00000,   0.00000,   0.00000  )

     double point group D_3h (-62m)
     there are  9 classes and  3 irreducible representations
     the character table:

       E     -E    2C3   -2C3   3C2'  s_h  2S3   -2S3   3s_v
                               -3C2' -s_h'             -3s_v
G_7    2.00 -2.00  1.00 -1.00  0.00  0.00  1.73 -1.73  0.00
G_8    2.00 -2.00  1.00 -1.00  0.00  0.00 -1.73  1.73  0.00
G_9    2.00 -2.00 -2.00  2.00  0.00  0.00  0.00  0.00  0.00

     the symmetry operations in each class and the name of the first element:

     E             1
                                                                 
     -E           -1
                                                                 
     2C3           3    4
                                                                 
     -2C3         -3   -4
                                                                 
      3C2'-3C2'    2   -6    5   -2   -5    6
                                                                 
     2S3           9   10
                                                                 
     -2S3         -9  -10
                                                                 
      3s_v-3s_v    7   -7
                                                                 
      3s_v-3s_v    8   -8  -11  -12   11   12
                                                                 

     Band symmetry, D_3h (-62m) double point group:

     e(  1 -  2) =    -73.92533  eV     2   --> G_7            
     e(  3 -  4) =    -45.30208  eV     2   --> G_8            
     e(  5 -  6) =    -35.57609  eV     2   --> G_8            
     e(  7 -  8) =    -35.43043  eV     2   --> G_9            
     e(  9 - 10) =    -14.82359  eV     2   --> G_7            
     e( 11 - 12) =    -13.20625  eV     2   --> G_8            
     e( 13 - 14) =     -6.41643  eV     2   --> G_7            
     e( 15 - 16) =     -3.07052  eV     2   --> G_9            
     e( 17 - 18) =     -2.80754  eV     2   --> G_8            
     e( 19 - 20) =     -2.20935  eV     2   --> G_8            
     e( 21 - 22) =     -1.81543  eV     2   --> G_7            
     e( 23 - 24) =     -1.59885  eV     2   --> G_9            
     e( 25 - 26) =     -0.11811  eV     2   --> G_7            
     e( 27 - 28) =      2.69771  eV     2   --> G_7            
     e( 29 - 30) =      2.72669  eV     2   --> G_9            
     e( 31 - 32) =      3.00959  eV     2   --> G_8            
     e( 33 - 34) =      3.01896  eV     2   --> G_9            
     e( 35 - 36) =      4.85759  eV     2   --> G_7            
     e( 37 - 38) =      5.34194  eV     2   --> G_8            
     e( 39 - 40) =      5.47057  eV     2   --> G_7            
     e( 41 - 42) =      6.40531  eV     2   --> G_7            
     e( 43 - 44) =      7.66138  eV     2   --> G_8            
     e( 45 - 46) =      8.47571  eV     2   --> G_8            
     e( 47 - 48) =      9.02112  eV     2   --> G_7            
     e( 49 - 50) =     10.18760  eV     2   --> G_8            
     e( 51 - 52) =     10.48389  eV     2   --> G_9            
     e( 53 - 54) =     11.19525  eV     2   --> G_8            
     e( 55 - 56) =     11.89780  eV     2   --> G_7            
     e( 57 - 58) =     12.56680  eV     2   --> G_7            
     e( 59 - 60) =     12.60607  eV     2   --> G_9            

 **************************************************************************

 **************************************************************************

                    xk=(   0.00680,   0.01177,   0.00000  )

     double point group C_s (m)    
     there are  4 classes and  2 irreducible representations
     the character table:

       E     -E    s     -s   
                              
G_3    1.00 -1.00  0.00  0.00
G_4    1.00 -1.00  0.00  0.00

     imaginary part

       E     -E    s     -s   
                              
G_3    0.00  0.00  1.00 -1.00
G_4    0.00  0.00 -1.00  1.00

     the symmetry operations in each class and the name of the first element:

     E             1
                                                                 
     -E           -1
                                                                 
     s             2
                                                                 
     -s           -2
                                                                 

     Band symmetry, C_s (m)     double point group:

     e(  1 -  2) =    -73.92531  eV     2   --> G_3            
     e(  1 -  2) =    -73.92531  eV     2   --> G_4            
     e(  3 -  4) =    -45.30216  eV     2   --> G_3            
     e(  3 -  4) =    -45.30216  eV     2   --> G_4            
     e(  5 -  6) =    -35.57614  eV     2   --> G_3            
     e(  5 -  6) =    -35.57614  eV     2   --> G_4            
     e(  7 -  8) =    -35.43080  eV     2   --> G_3            
     e(  7 -  8) =    -35.43080  eV     2   --> G_4            
     e(  9 - 10) =    -14.82131  eV     2   --> G_3            
     e(  9 - 10) =    -14.82131  eV     2   --> G_4            
     e( 11 - 12) =    -13.20540  eV     2   --> G_3            
     e( 11 - 12) =    -13.20540  eV     2   --> G_4            
     e( 13 - 14) =     -6.41366  eV     2   --> G_3            
     e( 13 - 14) =     -6.41366  eV     2   --> G_4            
     e( 15 - 15) =     -3.07265  eV     1   --> G_4            
     e( 16 - 16) =     -3.07249  eV     1   --> G_3            
     e( 17 - 17) =     -2.80971  eV     1   --> G_3            
     e( 18 - 18) =     -2.80955  eV     1   --> G_4            
     e( 19 - 19) =     -2.22188  eV     1   --> G_3            
     e( 20 - 20) =     -2.22176  eV     1   --> G_4            
     e( 21 - 22) =     -1.81150  eV     2   --> G_3            
     e( 21 - 22) =     -1.81150  eV     2   --> G_4            
     e( 23 - 23) =     -1.59803  eV     1   --> G_4            
     e( 24 - 24) =     -1.59792  eV     1   --> G_3            
     e( 25 - 26) =     -0.11916  eV     2   --> G_3            
     e( 25 - 26) =     -0.11916  eV     2   --> G_4            
     e( 27 - 27) =      2.69738  eV     1   --> G_4            
     e( 28 - 28) =      2.69806  eV     1   --> G_3            
     e( 29 - 29) =      2.72438  eV     1   --> G_3            
     e( 30 - 30) =      2.72549  eV     1   --> G_4            
     e( 31 - 31) =      3.00488  eV     1   --> G_4            
     e( 32 - 32) =      3.00548  eV     1   --> G_3            
     e( 33 - 33) =      3.01783  eV     1   --> G_3            
     e( 34 - 34) =      3.01805  eV     1   --> G_4            
     e( 35 - 36) =      4.86560  eV     2   --> G_3            
     e( 35 - 36) =      4.86560  eV     2   --> G_4            
     e( 37 - 38) =      5.34471  eV     2   --> G_3            
     e( 37 - 38) =      5.34471  eV     2   --> G_4            
     e( 39 - 40) =      5.47713  eV     2   --> G_3            
     e( 39 - 40) =      5.47713  eV     2   --> G_4            
     e( 41 - 42) =      6.40880  eV     2   --> G_3            
     e( 41 - 42) =      6.40880  eV     2   --> G_4            
     e( 43 - 44) =      7.66392  eV     2   --> G_3            
     e( 43 - 44) =      7.66392  eV     2   --> G_4            
     e( 45 - 46) =      8.48605  eV     2   --> G_3            
     e( 45 - 46) =      8.48605  eV     2   --> G_4            
     e( 47 - 48) =      9.02330  eV     2   --> G_3            
     e( 47 - 48) =      9.02330  eV     2   --> G_4            
     e( 49 - 49) =     10.18535  eV     1   --> G_4            
     e( 50 - 50) =     10.18598  eV     1   --> G_3            
     e( 51 - 51) =     10.48085  eV     1   --> G_3            
     e( 52 - 52) =     10.48150  eV     1   --> G_4            
     e( 53 - 54) =     11.19710  eV     2   --> G_3            
     e( 53 - 54) =     11.19710  eV     2   --> G_4            
     e( 55 - 56) =     11.90719  eV     2   --> G_3            
     e( 55 - 56) =     11.90719  eV     2   --> G_4            
     e( 57 - 57) =     12.55436  eV     1   --> G_3            
     e( 58 - 58) =     12.55519  eV     1   --> G_4            
     e( 59 - 59) =     12.59769  eV     1   --> G_4            
     e( 60 - 60) =     12.59858  eV     1   --> G_3            

 **************************************************************************

 **************************************************************************

                    xk=(   0.01359,   0.02354,   0.00000  )

     Band symmetry, C_s (m)     double point group:

     e(  1 -  2) =    -73.92524  eV     2   --> G_3            
     e(  1 -  2) =    -73.92524  eV     2   --> G_4            
     e(  3 -  4) =    -45.30242  eV     2   --> G_3            
     e(  3 -  4) =    -45.30242  eV     2   --> G_4            
     e(  5 -  6) =    -35.57628  eV     2   --> G_3            
     e(  5 -  6) =    -35.57628  eV     2   --> G_4            
     e(  7 -  8) =    -35.43191  eV     2   --> G_3            
     e(  7 -  8) =    -35.43191  eV     2   --> G_4            
     e(  9 - 10) =    -14.81447  eV     2   --> G_3            
     e(  9 - 10) =    -14.81447  eV     2   --> G_4            
     e( 11 - 12) =    -13.20286  eV     2   --> G_3            
     e( 11 - 12) =    -13.20286  eV     2   --> G_4            
     e( 13 - 14) =     -6.40538  eV     2   --> G_3            
     e( 13 - 14) =     -6.40538  eV     2   --> G_4            
     e( 15 - 15) =     -3.08014  eV     1   --> G_4            
     e( 16 - 16) =     -3.07886  eV     1   --> G_3            
     e( 17 - 17) =     -2.81568  eV     1   --> G_3            
     e( 18 - 18) =     -2.81442  eV     1   --> G_4            
     e( 19 - 19) =     -2.25694  eV     1   --> G_3            
     e( 20 - 20) =     -2.25605  eV     1   --> G_4            
     e( 21 - 21) =     -1.80352  eV     1   --> G_4            
     e( 22 - 22) =     -1.80335  eV     1   --> G_3            
     e( 23 - 23) =     -1.59470  eV     1   --> G_4            
     e( 24 - 24) =     -1.59382  eV     1   --> G_3            
     e( 25 - 26) =     -0.12237  eV     2   --> G_3            
     e( 25 - 26) =     -0.12237  eV     2   --> G_4            
     e( 27 - 27) =      2.69076  eV     1   --> G_4            
     e( 28 - 28) =      2.69744  eV     1   --> G_3            
     e( 29 - 29) =      2.71776  eV     1   --> G_3            
     e( 30 - 30) =      2.72798  eV     1   --> G_4            
     e( 31 - 31) =      2.99078  eV     1   --> G_4            
     e( 32 - 32) =      2.99297  eV     1   --> G_3            
     e( 33 - 33) =      3.01551  eV     1   --> G_4            
     e( 34 - 34) =      3.01647  eV     1   --> G_3            
     e( 35 - 35) =      4.88898  eV     1   --> G_4            
     e( 36 - 36) =      4.88913  eV     1   --> G_3            
     e( 37 - 38) =      5.35302  eV     2   --> G_3            
     e( 37 - 38) =      5.35302  eV     2   --> G_4            
     e( 39 - 40) =      5.49698  eV     2   --> G_3            
     e( 39 - 40) =      5.49698  eV     2   --> G_4            
     e( 41 - 42) =      6.41927  eV     2   --> G_3            
     e( 41 - 42) =      6.41927  eV     2   --> G_4            
     e( 43 - 44) =      7.67155  eV     2   --> G_3            
     e( 43 - 44) =      7.67155  eV     2   --> G_4            
     e( 45 - 46) =      8.51680  eV     2   --> G_3            
     e( 45 - 46) =      8.51680  eV     2   --> G_4            
     e( 47 - 48) =      9.02975  eV     2   --> G_3            
     e( 47 - 48) =      9.02975  eV     2   --> G_4            
     e( 49 - 49) =     10.17496  eV     1   --> G_4            
     e( 50 - 50) =     10.17984  eV     1   --> G_3            
     e( 51 - 51) =     10.47414  eV     1   --> G_3            
     e( 52 - 52) =     10.47918  eV     1   --> G_4            
     e( 53 - 54) =     11.20255  eV     2   --> G_3            
     e( 53 - 54) =     11.20255  eV     2   --> G_4            
     e( 55 - 56) =     11.93411  eV     2   --> G_3            
     e( 55 - 56) =     11.93411  eV     2   --> G_4            
     e( 57 - 57) =     12.50425  eV     1   --> G_3            
     e( 58 - 58) =     12.50726  eV     1   --> G_4            
     e( 59 - 59) =     12.58783  eV     1   --> G_4            
     e( 60 - 60) =     12.59124  eV     1   --> G_3            

 **************************************************************************

 **************************************************************************

                    xk=(   0.02039,   0.03531,   0.00000  )

     Band symmetry, C_s (m)     double point group:

     e(  1 -  2) =    -73.92512  eV     2   --> G_3            
     e(  1 -  2) =    -73.92512  eV     2   --> G_4            
     e(  3 -  4) =    -45.30284  eV     2   --> G_3            
     e(  3 -  4) =    -45.30284  eV     2   --> G_4            
     e(  5 -  6) =    -35.57652  eV     2   --> G_3            
     e(  5 -  6) =    -35.57652  eV     2   --> G_4            
     e(  7 -  8) =    -35.43375  eV     2   --> G_3            
     e(  7 -  8) =    -35.43375  eV     2   --> G_4            
     e(  9 -  9) =    -14.80311  eV     1   --> G_4            
     e( 10 - 10) =    -14.80301  eV     1   --> G_3            
     e( 11 - 12) =    -13.19863  eV     2   --> G_3            
     e( 11 - 12) =    -13.19863  eV     2   --> G_4            
     e( 13 - 14) =     -6.39163  eV     2   --> G_3            
     e( 13 - 14) =     -6.39163  eV     2   --> G_4            
     e( 15 - 15) =     -3.09553  eV     1   --> G_4            
     e( 16 - 16) =     -3.09137  eV     1   --> G_3            
     e( 17 - 17) =     -2.82343  eV     1   --> G_3            
     e( 18 - 18) =     -2.81934  eV     1   --> G_4            
     e( 19 - 19) =     -2.30892  eV     1   --> G_3            
     e( 20 - 20) =     -2.30625  eV     1   --> G_4            
     e( 21 - 21) =     -1.79971  eV     1   --> G_4            
     e( 22 - 22) =     -1.79938  eV     1   --> G_3            
     e( 23 - 23) =     -1.58650  eV     1   --> G_4            
     e( 24 - 24) =     -1.58366  eV     1   --> G_3            
     e( 25 - 26) =     -0.12787  eV     2   --> G_3            
     e( 25 - 26) =     -0.12787  eV     2   --> G_4            
     e( 27 - 27) =      2.67201  eV     1   --> G_4            
     e( 28 - 28) =      2.69048  eV     1   --> G_3            
     e( 29 - 29) =      2.70928  eV     1   --> G_3            
     e( 30 - 30) =      2.74025  eV     1   --> G_4            
     e( 31 - 31) =      2.96932  eV     1   --> G_4            
     e( 32 - 32) =      2.97253  eV     1   --> G_3            
     e( 33 - 33) =      3.01087  eV     1   --> G_4            
     e( 34 - 34) =      3.01883  eV     1   --> G_3            
     e( 35 - 35) =      4.92593  eV     1   --> G_4            
     e( 36 - 36) =      4.92639  eV     1   --> G_3            
     e( 37 - 38) =      5.36683  eV     2   --> G_3            
     e( 37 - 38) =      5.36683  eV     2   --> G_4            
     e( 39 - 40) =      5.53065  eV     2   --> G_3            
     e( 39 - 40) =      5.53065  eV     2   --> G_4            
     e( 41 - 42) =      6.43676  eV     2   --> G_3            
     e( 41 - 42) =      6.43676  eV     2   --> G_4            
     e( 43 - 44) =      7.68424  eV     2   --> G_3            
     e( 43 - 44) =      7.68424  eV     2   --> G_4            
     e( 45 - 46) =      8.56717  eV     2   --> G_3            
     e( 45 - 46) =      8.56717  eV     2   --> G_4            
     e( 47 - 47) =      9.04018  eV     1   --> G_4            
     e( 48 - 48) =      9.04029  eV     1   --> G_3            
     e( 49 - 49) =     10.14941  eV     1   --> G_4            
     e( 50 - 50) =     10.16415  eV     1   --> G_3            
     e( 51 - 51) =     10.47170  eV     1   --> G_3            
     e( 52 - 52) =     10.48693  eV     1   --> G_4            
     e( 53 - 54) =     11.21122  eV     2   --> G_3            
     e( 53 - 54) =     11.21122  eV     2   --> G_4            
     e( 55 - 55) =     11.97495  eV     1   --> G_3            
     e( 56 - 56) =     11.97541  eV     1   --> G_4            
     e( 57 - 57) =     12.41887  eV     1   --> G_3            
     e( 58 - 58) =     12.42276  eV     1   --> G_4            
     e( 59 - 59) =     12.58264  eV     1   --> G_4            
     e( 60 - 60) =     12.58792  eV     1   --> G_3            

 **************************************************************************

 **************************************************************************

                    xk=(   0.02718,   0.04708,   0.00000  )

     Band symmetry, C_s (m)     double point group:

     e(  1 -  2) =    -73.92497  eV     2   --> G_3            
     e(  1 -  2) =    -73.92497  eV     2   --> G_4            
     e(  3 -  4) =    -45.30344  eV     2   --> G_3            
     e(  3 -  4) =    -45.30344  eV     2   --> G_4            
     e(  5 -  6) =    -35.57687  eV     2   --> G_3            
     e(  5 -  6) =    -35.57687  eV     2   --> G_4            
     e(  7 -  8) =    -35.43632  eV     2   --> G_3            
     e(  7 -  8) =    -35.43632  eV     2   --> G_4            
     e(  9 -  9) =    -14.78727  eV     1   --> G_4            
     e( 10 - 10) =    -14.78703  eV     1   --> G_3            
     e( 11 - 12) =    -13.19272  eV     2   --> G_3            
     e( 11 - 12) =    -13.19272  eV     2   --> G_4            
     e( 13 - 13) =     -6.37249  eV     1   --> G_4            
     e( 14 - 14) =     -6.37232  eV     1   --> G_3            
     e( 15 - 15) =     -3.12184  eV     1   --> G_4            
     e( 16 - 16) =     -3.11281  eV     1   --> G_3            
     e( 17 - 17) =     -2.82970  eV     1   --> G_3            
     e( 18 - 18) =     -2.82093  eV     1   --> G_4            
     e( 19 - 19) =     -2.37256  eV     1   --> G_3            
     e( 20 - 20) =     -2.36694  eV     1   --> G_4            
     e( 21 - 21) =     -1.80708  eV     1   --> G_4            
     e( 22 - 22) =     -1.80650  eV     1   --> G_3            
     e( 23 - 23) =     -1.57157  eV     1   --> G_4            
     e( 24 - 24) =     -1.56554  eV     1   --> G_3            
     e( 25 - 26) =     -0.13586  eV     2   --> G_3            
     e( 25 - 26) =     -0.13586  eV     2   --> G_4            
     e( 27 - 27) =      2.64312  eV     1   --> G_4            
     e( 28 - 28) =      2.67459  eV     1   --> G_3            
     e( 29 - 29) =      2.69787  eV     1   --> G_3            
     e( 30 - 30) =      2.75975  eV     1   --> G_4            
     e( 31 - 31) =      2.94328  eV     1   --> G_4            
     e( 32 - 32) =      2.94626  eV     1   --> G_3            
     e( 33 - 33) =      3.00443  eV     1   --> G_4            
     e( 34 - 34) =      3.02887  eV     1   --> G_3            
     e( 35 - 35) =      4.97383  eV     1   --> G_4            
     e( 36 - 36) =      4.97481  eV     1   --> G_3            
     e( 37 - 38) =      5.38610  eV     2   --> G_3            
     e( 37 - 38) =      5.38610  eV     2   --> G_4            
     e( 39 - 39) =      5.57888  eV     1   --> G_4            
     e( 40 - 40) =      5.57901  eV     1   --> G_3            
     e( 41 - 41) =      6.46139  eV     1   --> G_4            
     e( 42 - 42) =      6.46157  eV     1   --> G_3            
     e( 43 - 44) =      7.70195  eV     2   --> G_3            
     e( 43 - 44) =      7.70195  eV     2   --> G_4            
     e( 45 - 46) =      8.63583  eV     2   --> G_3            
     e( 45 - 46) =      8.63583  eV     2   --> G_4            
     e( 47 - 47) =      9.05418  eV     1   --> G_4            
     e( 48 - 48) =      9.05446  eV     1   --> G_3            
     e( 49 - 49) =     10.10497  eV     1   --> G_4            
     e( 50 - 50) =     10.13336  eV     1   --> G_3            
     e( 51 - 51) =     10.48296  eV     1   --> G_3            
     e( 52 - 52) =     10.51241  eV     1   --> G_4            
     e( 53 - 54) =     11.22237  eV     2   --> G_3            
     e( 53 - 54) =     11.22237  eV     2   --> G_4            
     e( 55 - 55) =     12.02364  eV     1   --> G_3            
     e( 56 - 56) =     12.02586  eV     1   --> G_4            
     e( 57 - 57) =     12.31148  eV     1   --> G_3            
     e( 58 - 58) =     12.31411  eV     1   --> G_4            
     e( 59 - 59) =     12.57842  eV     1   --> G_4            
     e( 60 - 60) =     12.58497  eV     1   --> G_3            

 **************************************************************************

 **************************************************************************

                    xk=(   0.03398,   0.05885,   0.00000  )

     Band symmetry, C_s (m)     double point group:

     e(  1 -  2) =    -73.92477  eV     2   --> G_3            
     e(  1 -  2) =    -73.92477  eV     2   --> G_4            
     e(  3 -  4) =    -45.30420  eV     2   --> G_3            
     e(  3 -  4) =    -45.30420  eV     2   --> G_4            
     e(  5 -  6) =    -35.57734  eV     2   --> G_3            
     e(  5 -  6) =    -35.57734  eV     2   --> G_4            
     e(  7 -  7) =    -35.43958  eV     1   --> G_3            
     e(  8 -  8) =    -35.43940  eV     1   --> G_4            
     e(  9 -  9) =    -14.76702  eV     1   --> G_4            
     e( 10 - 10) =    -14.76655  eV     1   --> G_3            
     e( 11 - 12) =    -13.18516  eV     2   --> G_3            
     e( 11 - 12) =    -13.18516  eV     2   --> G_4            
     e( 13 - 13) =     -6.34806  eV     1   --> G_4            
     e( 14 - 14) =     -6.34773  eV     1   --> G_3            
     e( 15 - 15) =     -3.16118  eV     1   --> G_4            
     e( 16 - 16) =     -3.14591  eV     1   --> G_3            
     e( 17 - 17) =     -2.83121  eV     1   --> G_3            
     e( 18 - 18) =     -2.81671  eV     1   --> G_4            
     e( 19 - 19) =     -2.44412  eV     1   --> G_3            
     e( 20 - 20) =     -2.43412  eV     1   --> G_4            
     e( 21 - 21) =     -1.82840  eV     1   --> G_4            
     e( 22 - 22) =     -1.82703  eV     1   --> G_3            
     e( 23 - 23) =     -1.55063  eV     1   --> G_4            
     e( 24 - 24) =     -1.54057  eV     1   --> G_3            
     e( 25 - 26) =     -0.14659  eV     2   --> G_3            
     e( 25 - 26) =     -0.14659  eV     2   --> G_4            
     e( 27 - 27) =      2.60618  eV     1   --> G_4            
     e( 28 - 28) =      2.65295  eV     1   --> G_3            
     e( 29 - 29) =      2.67747  eV     1   --> G_3            
     e( 30 - 30) =      2.78215  eV     1   --> G_4            
     e( 31 - 32) =      2.91641  eV     2   --> G_3            
     e( 31 - 32) =      2.91641  eV     2   --> G_4            
     e( 33 - 33) =      2.99774  eV     1   --> G_4            
     e( 34 - 34) =      3.05004  eV     1   --> G_3            
     e( 35 - 35) =      5.02973  eV     1   --> G_4            
     e( 36 - 36) =      5.03140  eV     1   --> G_3            
     e( 37 - 38) =      5.41078  eV     2   --> G_3            
     e( 37 - 38) =      5.41078  eV     2   --> G_4            
     e( 39 - 39) =      5.64238  eV     1   --> G_4            
     e( 40 - 40) =      5.64264  eV     1   --> G_3            
     e( 41 - 41) =      6.49335  eV     1   --> G_4            
     e( 42 - 42) =      6.49369  eV     1   --> G_3            
     e( 43 - 44) =      7.72464  eV     2   --> G_3            
     e( 43 - 44) =      7.72464  eV     2   --> G_4            
     e( 45 - 45) =      8.72097  eV     1   --> G_4            
     e( 46 - 46) =      8.72115  eV     1   --> G_3            
     e( 47 - 47) =      9.07112  eV     1   --> G_4            
     e( 48 - 48) =      9.07179  eV     1   --> G_3            
     e( 49 - 49) =     10.04451  eV     1   --> G_4            
     e( 50 - 50) =     10.08673  eV     1   --> G_3            
     e( 51 - 51) =     10.51258  eV     1   --> G_3            
     e( 52 - 52) =     10.55674  eV     1   --> G_4            
     e( 53 - 54) =     11.23462  eV     2   --> G_3            
     e( 53 - 54) =     11.23462  eV     2   --> G_4            
     e( 55 - 55) =     12.06254  eV     1   --> G_3            
     e( 56 - 56) =     12.07399  eV     1   --> G_4            
     e( 57 - 57) =     12.19830  eV     1   --> G_4            
     e( 58 - 58) =     12.20500  eV     1   --> G_3            
     e( 59 - 59) =     12.57394  eV     1   --> G_4            
     e( 60 - 60) =     12.58110  eV     1   --> G_3            

 **************************************************************************

 **************************************************************************

                    xk=(   0.04078,   0.07063,   0.00000  )

     Band symmetry, C_s (m)     double point group:

     e(  1 -  2) =    -73.92452  eV     2   --> G_3            
     e(  1 -  2) =    -73.92452  eV     2   --> G_4            
     e(  3 -  4) =    -45.30513  eV     2   --> G_3            
     e(  3 -  4) =    -45.30513  eV     2   --> G_4            
     e(  5 -  5) =    -35.57794  eV     1   --> G_4            
     e(  6 -  6) =    -35.57783  eV     1   --> G_3            
     e(  7 -  7) =    -35.44352  eV     1   --> G_3            
     e(  8 -  8) =    -35.44320  eV     1   --> G_4            
     e(  9 -  9) =    -14.74242  eV     1   --> G_4            
     e( 10 - 10) =    -14.74162  eV     1   --> G_3            
     e( 11 - 11) =    -13.17598  eV     1   --> G_3            
     e( 12 - 12) =    -13.17588  eV     1   --> G_4            
     e( 13 - 13) =     -6.31848  eV     1   --> G_4            
     e( 14 - 14) =     -6.31790  eV     1   --> G_3            
     e( 15 - 15) =     -3.21383  eV     1   --> G_4            
     e( 16 - 16) =     -3.19201  eV     1   --> G_3            
     e( 17 - 17) =     -2.82592  eV     1   --> G_3            
     e( 18 - 18) =     -2.80636  eV     1   --> G_4            
     e( 19 - 19) =     -2.52103  eV     1   --> G_3            
     e( 20 - 20) =     -2.50461  eV     1   --> G_4            
     e( 21 - 21) =     -1.86319  eV     1   --> G_4            
     e( 22 - 22) =     -1.86013  eV     1   --> G_3            
     e( 23 - 23) =     -1.52627  eV     1   --> G_4            
     e( 24 - 24) =     -1.51174  eV     1   --> G_3            
     e( 25 - 25) =     -0.16057  eV     1   --> G_4            
     e( 26 - 26) =     -0.16034  eV     1   --> G_3            
     e( 27 - 27) =      2.56281  eV     1   --> G_4            
     e( 28 - 28) =      2.62705  eV     1   --> G_3            
     e( 29 - 29) =      2.64646  eV     1   --> G_3            
     e( 30 - 30) =      2.79888  eV     1   --> G_4            
     e( 31 - 31) =      2.88488  eV     1   --> G_3            
     e( 32 - 32) =      2.89502  eV     1   --> G_4            
     e( 33 - 33) =      2.99468  eV     1   --> G_4            
     e( 34 - 34) =      3.08391  eV     1   --> G_3            
     e( 35 - 35) =      5.09079  eV     1   --> G_4            
     e( 36 - 36) =      5.09325  eV     1   --> G_3            
     e( 37 - 37) =      5.44080  eV     1   --> G_3            
     e( 38 - 38) =      5.44090  eV     1   --> G_4            
     e( 39 - 39) =      5.72142  eV     1   --> G_4            
     e( 40 - 40) =      5.72190  eV     1   --> G_3            
     e( 41 - 41) =      6.53302  eV     1   --> G_4            
     e( 42 - 42) =      6.53356  eV     1   --> G_3            
     e( 43 - 44) =      7.75225  eV     2   --> G_3            
     e( 43 - 44) =      7.75225  eV     2   --> G_4            
     e( 45 - 45) =      8.82012  eV     1   --> G_4            
     e( 46 - 46) =      8.82057  eV     1   --> G_3            
     e( 47 - 47) =      9.09026  eV     1   --> G_4            
     e( 48 - 48) =      9.09183  eV     1   --> G_3            
     e( 49 - 49) =      9.97437  eV     1   --> G_4            
     e( 50 - 50) =     10.02873  eV     1   --> G_3            
     e( 51 - 51) =     10.55958  eV     1   --> G_3            
     e( 52 - 52) =     10.61736  eV     1   --> G_4            
     e( 53 - 54) =     11.24539  eV     2   --> G_3            
     e( 53 - 54) =     11.24539  eV     2   --> G_4            
     e( 55 - 55) =     12.00955  eV     1   --> G_3            
     e( 56 - 56) =     12.03048  eV     1   --> G_4            
     e( 57 - 57) =     12.16981  eV     1   --> G_4            
     e( 58 - 58) =     12.18684  eV     1   --> G_3            
     e( 59 - 59) =     12.56886  eV     1   --> G_4            
     e( 60 - 60) =     12.57566  eV     1   --> G_3            

 **************************************************************************

 **************************************************************************

                    xk=(   0.04757,   0.08240,   0.00000  )

     Band symmetry, C_s (m)     double point group:

     e(  1 -  2) =    -73.92424  eV     2   --> G_3            
     e(  1 -  2) =    -73.92424  eV     2   --> G_4            
     e(  3 -  4) =    -45.30621  eV     2   --> G_3            
     e(  3 -  4) =    -45.30621  eV     2   --> G_4            
     e(  5 -  5) =    -35.57869  eV     1   --> G_4            
     e(  6 -  6) =    -35.57852  eV     1   --> G_3            
     e(  7 -  7) =    -35.44808  eV     1   --> G_3            
     e(  8 -  8) =    -35.44758  eV     1   --> G_4            
     e(  9 -  9) =    -14.71356  eV     1   --> G_4            
     e( 10 - 10) =    -14.71229  eV     1   --> G_3            
     e( 11 - 11) =    -13.16519  eV     1   --> G_3            
     e( 12 - 12) =    -13.16503  eV     1   --> G_4            
     e( 13 - 13) =     -6.28390  eV     1   --> G_4            
     e( 14 - 14) =     -6.28297  eV     1   --> G_3            
     e( 15 - 15) =     -3.27860  eV     1   --> G_4            
     e( 16 - 16) =     -3.25071  eV     1   --> G_3            
     e( 17 - 17) =     -2.81354  eV     1   --> G_3            
     e( 18 - 18) =     -2.79223  eV     1   --> G_4            
     e( 19 - 19) =     -2.60154  eV     1   --> G_3            
     e( 20 - 20) =     -2.57472  eV     1   --> G_4            
     e( 21 - 21) =     -1.91004  eV     1   --> G_4            
     e( 22 - 22) =     -1.90427  eV     1   --> G_3            
     e( 23 - 23) =     -1.50106  eV     1   --> G_4            
     e( 24 - 24) =     -1.48188  eV     1   --> G_3            
     e( 25 - 25) =     -0.17830  eV     1   --> G_4            
     e( 26 - 26) =     -0.17746  eV     1   --> G_3            
     e( 27 - 27) =      2.51474  eV     1   --> G_4            
     e( 28 - 28) =      2.59189  eV     1   --> G_3            
     e( 29 - 29) =      2.61263  eV     1   --> G_3            
     e( 30 - 30) =      2.79622  eV     1   --> G_4            
     e( 31 - 31) =      2.85246  eV     1   --> G_3            
     e( 32 - 32) =      2.88606  eV     1   --> G_4            
     e( 33 - 33) =      3.00344  eV     1   --> G_4            
     e( 34 - 34) =      3.12991  eV     1   --> G_3            
     e( 35 - 35) =      5.15482  eV     1   --> G_4            
     e( 36 - 36) =      5.15811  eV     1   --> G_3            
     e( 37 - 37) =      5.47610  eV     1   --> G_3            
     e( 38 - 38) =      5.47626  eV     1   --> G_4            
     e( 39 - 39) =      5.81542  eV     1   --> G_4            
     e( 40 - 40) =      5.81619  eV     1   --> G_3            
     e( 41 - 41) =      6.58098  eV     1   --> G_4            
     e( 42 - 42) =      6.58177  eV     1   --> G_3            
     e( 43 - 44) =      7.78470  eV     2   --> G_3            
     e( 43 - 44) =      7.78470  eV     2   --> G_4            
     e( 45 - 45) =      8.92968  eV     1   --> G_4            
     e( 46 - 46) =      8.93042  eV     1   --> G_3            
     e( 47 - 47) =      9.11108  eV     1   --> G_4            
     e( 48 - 48) =      9.11478  eV     1   --> G_3            
     e( 49 - 49) =      9.90115  eV     1   --> G_4            
     e( 50 - 50) =      9.96540  eV     1   --> G_3            
     e( 51 - 51) =     10.62081  eV     1   --> G_3            
     e( 52 - 52) =     10.69117  eV     1   --> G_4            
     e( 53 - 53) =     11.24965  eV     1   --> G_3            
     e( 54 - 54) =     11.25000  eV     1   --> G_4            
     e( 55 - 55) =     11.89189  eV     1   --> G_3            
     e( 56 - 56) =     11.90909  eV     1   --> G_4            
     e( 57 - 57) =     12.22137  eV     1   --> G_4            
     e( 58 - 58) =     12.23660  eV     1   --> G_3            
     e( 59 - 59) =     12.56309  eV     1   --> G_4            
     e( 60 - 60) =     12.56820  eV     1   --> G_3            

 **************************************************************************

 **************************************************************************

                    xk=(   0.05437,   0.09417,   0.00000  )

     Band symmetry, C_s (m)     double point group:

     e(  1 -  2) =    -73.92392  eV     2   --> G_3            
     e(  1 -  2) =    -73.92392  eV     2   --> G_4            
     e(  3 -  3) =    -45.30745  eV     1   --> G_4            
     e(  4 -  4) =    -45.30732  eV     1   --> G_3            
     e(  5 -  5) =    -35.57960  eV     1   --> G_4            
     e(  6 -  6) =    -35.57935  eV     1   --> G_3            
     e(  7 -  7) =    -35.45322  eV     1   --> G_3            
     e(  8 -  8) =    -35.45248  eV     1   --> G_4            
     e(  9 -  9) =    -14.68054  eV     1   --> G_4            
     e( 10 - 10) =    -14.67864  eV     1   --> G_3            
     e( 11 - 11) =    -13.15284  eV     1   --> G_3            
     e( 12 - 12) =    -13.15260  eV     1   --> G_4            
     e( 13 - 13) =     -6.24451  eV     1   --> G_4            
     e( 14 - 14) =     -6.24310  eV     1   --> G_3            
     e( 15 - 15) =     -3.35371  eV     1   --> G_4            
     e( 16 - 16) =     -3.32052  eV     1   --> G_3            
     e( 17 - 17) =     -2.79483  eV     1   --> G_3            
     e( 18 - 18) =     -2.78260  eV     1   --> G_4            
     e( 19 - 19) =     -2.68429  eV     1   --> G_3            
     e( 20 - 20) =     -2.63585  eV     1   --> G_4            
     e( 21 - 21) =     -1.96776  eV     1   --> G_4            
     e( 22 - 22) =     -1.95826  eV     1   --> G_3            
     e( 23 - 23) =     -1.47678  eV     1   --> G_4            
     e( 24 - 24) =     -1.45290  eV     1   --> G_3            
     e( 25 - 25) =     -0.20026  eV     1   --> G_4            
     e( 26 - 26) =     -0.19823  eV     1   --> G_3            
     e( 27 - 27) =      2.46393  eV     1   --> G_4            
     e( 28 - 28) =      2.54219  eV     1   --> G_3            
     e( 29 - 29) =      2.58537  eV     1   --> G_3            
     e( 30 - 30) =      2.77489  eV     1   --> G_4            
     e( 31 - 31) =      2.81975  eV     1   --> G_3            
     e( 32 - 32) =      2.88101  eV     1   --> G_4            
     e( 33 - 33) =      3.03291  eV     1   --> G_4            
     e( 34 - 34) =      3.18642  eV     1   --> G_3            
     e( 35 - 35) =      5.22049  eV     1   --> G_4            
     e( 36 - 36) =      5.22460  eV     1   --> G_3            
     e( 37 - 37) =      5.51662  eV     1   --> G_3            
     e( 38 - 38) =      5.51684  eV     1   --> G_4            
     e( 39 - 39) =      5.92268  eV     1   --> G_4            
     e( 40 - 40) =      5.92380  eV     1   --> G_3            
     e( 41 - 41) =      6.63818  eV     1   --> G_4            
     e( 42 - 42) =      6.63923  eV     1   --> G_3            
     e( 43 - 44) =      7.82191  eV     2   --> G_3            
     e( 43 - 44) =      7.82191  eV     2   --> G_4            
     e( 45 - 45) =      9.04096  eV     1   --> G_3            
     e( 46 - 46) =      9.04119  eV     1   --> G_4            
     e( 47 - 47) =      9.13659  eV     1   --> G_4            
     e( 48 - 48) =      9.14616  eV     1   --> G_3            
     e( 49 - 49) =      9.83118  eV     1   --> G_4            
     e( 50 - 50) =      9.90237  eV     1   --> G_3            
     e( 51 - 51) =     10.69311  eV     1   --> G_3            
     e( 52 - 52) =     10.77552  eV     1   --> G_4            
     e( 53 - 53) =     11.23823  eV     1   --> G_3            
     e( 54 - 54) =     11.23946  eV     1   --> G_4            
     e( 55 - 55) =     11.78145  eV     1   --> G_3            
     e( 56 - 56) =     11.79702  eV     1   --> G_4            
     e( 57 - 57) =     12.27534  eV     1   --> G_4            
     e( 58 - 58) =     12.29294  eV     1   --> G_3            
     e( 59 - 59) =     12.55686  eV     1   --> G_4            
     e( 60 - 60) =     12.55834  eV     1   --> G_3            

 **************************************************************************

 **************************************************************************

                    xk=(   0.06116,   0.10594,   0.00000  )

     Band symmetry, C_s (m)     double point group:

     e(  1 -  2) =    -73.92356  eV     2   --> G_3            
     e(  1 -  2) =    -73.92356  eV     2   --> G_4            
     e(  3 -  3) =    -45.30884  eV     1   --> G_4            
     e(  4 -  4) =    -45.30865  eV     1   --> G_3            
     e(  5 -  5) =    -35.58069  eV     1   --> G_4            
     e(  6 -  6) =    -35.58035  eV     1   --> G_3            
     e(  7 -  7) =    -35.45890  eV     1   --> G_3            
     e(  8 -  8) =    -35.45786  eV     1   --> G_4            
     e(  9 -  9) =    -14.64348  eV     1   --> G_4            
     e( 10 - 10) =    -14.64078  eV     1   --> G_3            
     e( 11 - 11) =    -13.13896  eV     1   --> G_3            
     e( 12 - 12) =    -13.13862  eV     1   --> G_4            
     e( 13 - 13) =     -6.20056  eV     1   --> G_4            
     e( 14 - 14) =     -6.19851  eV     1   --> G_3            
     e( 15 - 15) =     -3.43733  eV     1   --> G_4            
     e( 16 - 16) =     -3.39967  eV     1   --> G_3            
     e( 17 - 17) =     -2.80135  eV     1   --> G_4            
     e( 18 - 18) =     -2.77429  eV     1   --> G_3            
     e( 19 - 19) =     -2.76486  eV     1   --> G_3            
     e( 20 - 20) =     -2.66419  eV     1   --> G_4            
     e( 21 - 21) =     -2.03543  eV     1   --> G_4            
     e( 22 - 22) =     -2.02126  eV     1   --> G_3            
     e( 23 - 23) =     -1.45449  eV     1   --> G_4            
     e( 24 - 24) =     -1.42595  eV     1   --> G_3            
     e( 25 - 25) =     -0.22700  eV     1   --> G_4            
     e( 26 - 26) =     -0.22298  eV     1   --> G_3            
     e( 27 - 27) =      2.41236  eV     1   --> G_4            
     e( 28 - 28) =      2.48489  eV     1   --> G_3            
     e( 29 - 29) =      2.56171  eV     1   --> G_3            
     e( 30 - 30) =      2.74609  eV     1   --> G_4            
     e( 31 - 31) =      2.78729  eV     1   --> G_3            
     e( 32 - 32) =      2.87031  eV     1   --> G_4            
     e( 33 - 33) =      3.08219  eV     1   --> G_4            
     e( 34 - 34) =      3.25166  eV     1   --> G_3            
     e( 35 - 35) =      5.28727  eV     1   --> G_4            
     e( 36 - 36) =      5.29219  eV     1   --> G_3            
     e( 37 - 37) =      5.56229  eV     1   --> G_3            
     e( 38 - 38) =      5.56259  eV     1   --> G_4            
     e( 39 - 39) =      6.04028  eV     1   --> G_4            
     e( 40 - 40) =      6.04177  eV     1   --> G_3            
     e( 41 - 41) =      6.70599  eV     1   --> G_4            
     e( 42 - 42) =      6.70727  eV     1   --> G_3            
     e( 43 - 44) =      7.86376  eV     2   --> G_3            
     e( 43 - 44) =      7.86376  eV     2   --> G_4            
     e( 45 - 45) =      9.11234  eV     1   --> G_4            
     e( 46 - 46) =      9.11294  eV     1   --> G_3            
     e( 47 - 47) =      9.20167  eV     1   --> G_4            
     e( 48 - 48) =      9.22010  eV     1   --> G_3            
     e( 49 - 49) =      9.77140  eV     1   --> G_4            
     e( 50 - 50) =      9.84464  eV     1   --> G_3            
     e( 51 - 51) =     10.77360  eV     1   --> G_3            
     e( 52 - 52) =     10.86804  eV     1   --> G_4            
     e( 53 - 53) =     11.19808  eV     1   --> G_3            
     e( 54 - 54) =     11.20129  eV     1   --> G_4            
     e( 55 - 55) =     11.70204  eV     1   --> G_3            
     e( 56 - 56) =     11.71602  eV     1   --> G_4            
     e( 57 - 57) =     12.32258  eV     1   --> G_4            
     e( 58 - 58) =     12.34599  eV     1   --> G_3            
     e( 59 - 59) =     12.54591  eV     1   --> G_3            
     e( 60 - 60) =     12.55063  eV     1   --> G_4            

 **************************************************************************

 **************************************************************************

                    xk=(   0.06796,   0.11771,   0.00000  )

     Band symmetry, C_s (m)     double point group:

     e(  1 -  2) =    -73.92316  eV     2   --> G_3            
     e(  1 -  2) =    -73.92316  eV     2   --> G_4            
     e(  3 -  3) =    -45.31037  eV     1   --> G_4            
     e(  4 -  4) =    -45.31011  eV     1   --> G_3            
     e(  5 -  5) =    -35.58201  eV     1   --> G_4            
     e(  6 -  6) =    -35.58155  eV     1   --> G_3            
     e(  7 -  7) =    -35.46504  eV     1   --> G_3            
     e(  8 -  8) =    -35.46363  eV     1   --> G_4            
     e(  9 -  9) =    -14.60249  eV     1   --> G_4            
     e( 10 - 10) =    -14.59879  eV     1   --> G_3            
     e( 11 - 11) =    -13.12361  eV     1   --> G_3            
     e( 12 - 12) =    -13.12314  eV     1   --> G_4            
     e( 13 - 13) =     -6.15230  eV     1   --> G_4            
     e( 14 - 14) =     -6.14943  eV     1   --> G_3            
     e( 15 - 15) =     -3.52777  eV     1   --> G_4            
     e( 16 - 16) =     -3.48646  eV     1   --> G_3            
     e( 17 - 17) =     -2.85772  eV     1   --> G_4            
     e( 18 - 18) =     -2.85348  eV     1   --> G_3            
     e( 19 - 19) =     -2.74197  eV     1   --> G_3            
     e( 20 - 20) =     -2.65066  eV     1   --> G_4            
     e( 21 - 21) =     -2.11227  eV     1   --> G_4            
     e( 22 - 22) =     -2.09261  eV     1   --> G_3            
     e( 23 - 23) =     -1.43477  eV     1   --> G_4            
     e( 24 - 24) =     -1.40171  eV     1   --> G_3            
     e( 25 - 25) =     -0.25899  eV     1   --> G_4            
     e( 26 - 26) =     -0.25192  eV     1   --> G_3            
     e( 27 - 27) =      2.36189  eV     1   --> G_4            
     e( 28 - 28) =      2.42407  eV     1   --> G_3            
     e( 29 - 29) =      2.54081  eV     1   --> G_3            
     e( 30 - 30) =      2.71489  eV     1   --> G_4            
     e( 31 - 31) =      2.75586  eV     1   --> G_3            
     e( 32 - 32) =      2.85571  eV     1   --> G_4            
     e( 33 - 33) =      3.14502  eV     1   --> G_4            
     e( 34 - 34) =      3.32406  eV     1   --> G_3            
     e( 35 - 35) =      5.35524  eV     1   --> G_4            
     e( 36 - 36) =      5.36094  eV     1   --> G_3            
     e( 37 - 37) =      5.61304  eV     1   --> G_3            
     e( 38 - 38) =      5.61344  eV     1   --> G_4            
     e( 39 - 39) =      6.16427  eV     1   --> G_4            
     e( 40 - 40) =      6.16611  eV     1   --> G_3            
     e( 41 - 41) =      6.78629  eV     1   --> G_4            
     e( 42 - 42) =      6.78770  eV     1   --> G_3            
     e( 43 - 44) =      7.91012  eV     2   --> G_3            
     e( 43 - 44) =      7.91012  eV     2   --> G_4            
     e( 45 - 45) =      9.12601  eV     1   --> G_4            
     e( 46 - 46) =      9.13670  eV     1   --> G_3            
     e( 47 - 47) =      9.31297  eV     1   --> G_4            
     e( 48 - 48) =      9.34004  eV     1   --> G_3            
     e( 49 - 49) =      9.73047  eV     1   --> G_4            
     e( 50 - 50) =      9.79704  eV     1   --> G_3            
     e( 51 - 51) =     10.85947  eV     1   --> G_3            
     e( 52 - 52) =     10.96642  eV     1   --> G_4            
     e( 53 - 53) =     11.12252  eV     1   --> G_3            
     e( 54 - 54) =     11.12865  eV     1   --> G_4            
     e( 55 - 55) =     11.66465  eV     1   --> G_3            
     e( 56 - 56) =     11.67685  eV     1   --> G_4            
     e( 57 - 57) =     12.35906  eV     1   --> G_4            
     e( 58 - 58) =     12.39236  eV     1   --> G_3            
     e( 59 - 59) =     12.53116  eV     1   --> G_3            
     e( 60 - 60) =     12.54508  eV     1   --> G_4            

 **************************************************************************

 **************************************************************************

                    xk=(   0.07476,   0.12948,   0.00000  )

     Band symmetry, C_s (m)     double point group:

     e(  1 -  2) =    -73.92273  eV     2   --> G_3            
     e(  1 -  2) =    -73.92273  eV     2   --> G_4            
     e(  3 -  3) =    -45.31203  eV     1   --> G_4            
     e(  4 -  4) =    -45.31170  eV     1   --> G_3            
     e(  5 -  5) =    -35.58356  eV     1   --> G_4            
     e(  6 -  6) =    -35.58298  eV     1   --> G_3            
     e(  7 -  7) =    -35.47157  eV     1   --> G_3            
     e(  8 -  8) =    -35.46974  eV     1   --> G_4            
     e(  9 -  9) =    -14.55772  eV     1   --> G_4            
     e( 10 - 10) =    -14.55280  eV     1   --> G_3            
     e( 11 - 11) =    -13.10682  eV     1   --> G_3            
     e( 12 - 12) =    -13.10620  eV     1   --> G_4            
     e( 13 - 13) =     -6.10005  eV     1   --> G_4            
     e( 14 - 14) =     -6.09614  eV     1   --> G_3            
     e( 15 - 15) =     -3.62350  eV     1   --> G_4            
     e( 16 - 16) =     -3.57933  eV     1   --> G_3            
     e( 17 - 17) =     -2.93793  eV     1   --> G_3            
     e( 18 - 18) =     -2.92869  eV     1   --> G_4            
     e( 19 - 19) =     -2.71051  eV     1   --> G_3            
     e( 20 - 20) =     -2.61856  eV     1   --> G_4            
     e( 21 - 21) =     -2.19746  eV     1   --> G_4            
     e( 22 - 22) =     -2.17161  eV     1   --> G_3            
     e( 23 - 23) =     -1.41793  eV     1   --> G_4            
     e( 24 - 24) =     -1.38054  eV     1   --> G_3            
     e( 25 - 25) =     -0.29664  eV     1   --> G_4            
     e( 26 - 26) =     -0.28520  eV     1   --> G_3            
     e( 27 - 27) =      2.31413  eV     1   --> G_4            
     e( 28 - 28) =      2.36194  eV     1   --> G_3            
     e( 29 - 29) =      2.52277  eV     1   --> G_3            
     e( 30 - 30) =      2.68281  eV     1   --> G_4            
     e( 31 - 31) =      2.72659  eV     1   --> G_3            
     e( 32 - 32) =      2.84049  eV     1   --> G_4            
     e( 33 - 33) =      3.21701  eV     1   --> G_4            
     e( 34 - 34) =      3.40229  eV     1   --> G_3            
     e( 35 - 35) =      5.42474  eV     1   --> G_4            
     e( 36 - 36) =      5.43121  eV     1   --> G_3            
     e( 37 - 37) =      5.66879  eV     1   --> G_3            
     e( 38 - 38) =      5.66930  eV     1   --> G_4            
     e( 39 - 39) =      6.29010  eV     1   --> G_4            
     e( 40 - 40) =      6.29225  eV     1   --> G_3            
     e( 41 - 41) =      6.88124  eV     1   --> G_4            
     e( 42 - 42) =      6.88256  eV     1   --> G_3            
     e( 43 - 43) =      7.96085  eV     1   --> G_3            
     e( 44 - 44) =      7.96098  eV     1   --> G_4            
     e( 45 - 45) =      9.11818  eV     1   --> G_4            
     e( 46 - 46) =      9.14326  eV     1   --> G_3            
     e( 47 - 47) =      9.42011  eV     1   --> G_4            
     e( 48 - 48) =      9.46745  eV     1   --> G_3            
     e( 49 - 49) =      9.71967  eV     1   --> G_4            
     e( 50 - 50) =      9.76433  eV     1   --> G_3            
     e( 51 - 51) =     10.94759  eV     1   --> G_3            
     e( 52 - 52) =     11.02155  eV     1   --> G_3            
     e( 53 - 53) =     11.03065  eV     1   --> G_4            
     e( 54 - 54) =     11.06821  eV     1   --> G_4            
     e( 55 - 55) =     11.66269  eV     1   --> G_3            
     e( 56 - 56) =     11.67380  eV     1   --> G_4            
     e( 57 - 57) =     12.38267  eV     1   --> G_4            
     e( 58 - 58) =     12.43018  eV     1   --> G_3            
     e( 59 - 59) =     12.51503  eV     1   --> G_3            
     e( 60 - 60) =     12.54057  eV     1   --> G_4            

 **************************************************************************

 **************************************************************************

                    xk=(   0.08155,   0.14125,   0.00000  )

     Band symmetry, C_s (m)     double point group:

     e(  1 -  2) =    -73.92227  eV     2   --> G_3            
     e(  1 -  2) =    -73.92227  eV     2   --> G_4            
     e(  3 -  3) =    -45.31382  eV     1   --> G_4            
     e(  4 -  4) =    -45.31339  eV     1   --> G_3            
     e(  5 -  5) =    -35.58540  eV     1   --> G_4            
     e(  6 -  6) =    -35.58468  eV     1   --> G_3            
     e(  7 -  7) =    -35.47841  eV     1   --> G_3            
     e(  8 -  8) =    -35.47608  eV     1   --> G_4            
     e(  9 -  9) =    -14.50931  eV     1   --> G_4            
     e( 10 - 10) =    -14.50294  eV     1   --> G_3            
     e( 11 - 11) =    -13.08865  eV     1   --> G_3            
     e( 12 - 12) =    -13.08785  eV     1   --> G_4            
     e( 13 - 13) =     -6.04417  eV     1   --> G_4            
     e( 14 - 14) =     -6.03895  eV     1   --> G_3            
     e( 15 - 15) =     -3.72313  eV     1   --> G_4            
     e( 16 - 16) =     -3.67691  eV     1   --> G_3            
     e( 17 - 17) =     -3.02183  eV     1   --> G_3            
     e( 18 - 18) =     -3.00338  eV     1   --> G_4            
     e( 19 - 19) =     -2.67686  eV     1   --> G_3            
     e( 20 - 20) =     -2.57938  eV     1   --> G_4            
     e( 21 - 21) =     -2.28992  eV     1   --> G_4            
     e( 22 - 22) =     -2.25746  eV     1   --> G_3            
     e( 23 - 23) =     -1.40413  eV     1   --> G_4            
     e( 24 - 24) =     -1.36265  eV     1   --> G_3            
     e( 25 - 25) =     -0.34018  eV     1   --> G_4            
     e( 26 - 26) =     -0.32283  eV     1   --> G_3            
     e( 27 - 27) =      2.27035  eV     1   --> G_4            
     e( 28 - 28) =      2.29989  eV     1   --> G_3            
     e( 29 - 29) =      2.50768  eV     1   --> G_3            
     e( 30 - 30) =      2.65034  eV     1   --> G_4            
     e( 31 - 31) =      2.70087  eV     1   --> G_3            
     e( 32 - 32) =      2.82701  eV     1   --> G_4            
     e( 33 - 33) =      3.29567  eV     1   --> G_4            
     e( 34 - 34) =      3.48516  eV     1   --> G_3            
     e( 35 - 35) =      5.49623  eV     1   --> G_4            
     e( 36 - 36) =      5.50347  eV     1   --> G_3            
     e( 37 - 37) =      5.72947  eV     1   --> G_3            
     e( 38 - 38) =      5.73011  eV     1   --> G_4            
     e( 39 - 39) =      6.41342  eV     1   --> G_4            
     e( 40 - 40) =      6.41585  eV     1   --> G_3            
     e( 41 - 41) =      6.99265  eV     1   --> G_4            
     e( 42 - 42) =      6.99345  eV     1   --> G_3            
     e( 43 - 43) =      8.01575  eV     1   --> G_3            
     e( 44 - 44) =      8.01591  eV     1   --> G_4            
     e( 45 - 45) =      9.09383  eV     1   --> G_4            
     e( 46 - 46) =      9.13828  eV     1   --> G_3            
     e( 47 - 47) =      9.50305  eV     1   --> G_4            
     e( 48 - 48) =      9.58703  eV     1   --> G_3            
     e( 49 - 49) =      9.74928  eV     1   --> G_4            
     e( 50 - 50) =      9.75180  eV     1   --> G_3            
     e( 51 - 51) =     10.91162  eV     1   --> G_3            
     e( 52 - 52) =     10.92439  eV     1   --> G_4            
     e( 53 - 53) =     11.03530  eV     1   --> G_3            
     e( 54 - 54) =     11.17060  eV     1   --> G_4            
     e( 55 - 55) =     11.68261  eV     1   --> G_3            
     e( 56 - 56) =     11.69369  eV     1   --> G_4            
     e( 57 - 57) =     12.39429  eV     1   --> G_4            
     e( 58 - 58) =     12.45824  eV     1   --> G_3            
     e( 59 - 59) =     12.50006  eV     1   --> G_3            
     e( 60 - 60) =     12.53642  eV     1   --> G_4            

 **************************************************************************

 **************************************************************************

                    xk=(   0.08835,   0.15302,   0.00000  )

     Band symmetry, C_s (m)     double point group:

     e(  1 -  2) =    -73.92177  eV     2   --> G_3            
     e(  1 -  2) =    -73.92177  eV     2   --> G_4            
     e(  3 -  3) =    -45.31572  eV     1   --> G_4            
     e(  4 -  4) =    -45.31519  eV     1   --> G_3            
     e(  5 -  5) =    -35.58754  eV     1   --> G_4            
     e(  6 -  6) =    -35.58669  eV     1   --> G_3            
     e(  7 -  7) =    -35.48546  eV     1   --> G_3            
     e(  8 -  8) =    -35.48259  eV     1   --> G_4            
     e(  9 -  9) =    -14.45743  eV     1   --> G_4            
     e( 10 - 10) =    -14.44935  eV     1   --> G_3            
     e( 11 - 11) =    -13.06917  eV     1   --> G_3            
     e( 12 - 12) =    -13.06815  eV     1   --> G_4            
     e( 13 - 13) =     -5.98509  eV     1   --> G_4            
     e( 14 - 14) =     -5.97822  eV     1   --> G_3            
     e( 15 - 15) =     -3.82536  eV     1   --> G_4            
     e( 16 - 16) =     -3.77791  eV     1   --> G_3            
     e( 17 - 17) =     -3.10475  eV     1   --> G_3            
     e( 18 - 18) =     -3.07859  eV     1   --> G_4            
     e( 19 - 19) =     -2.64255  eV     1   --> G_3            
     e( 20 - 20) =     -2.53838  eV     1   --> G_4            
     e( 21 - 21) =     -2.38713  eV     1   --> G_4            
     e( 22 - 22) =     -2.34889  eV     1   --> G_3            
     e( 23 - 23) =     -1.39343  eV     1   --> G_4            
     e( 24 - 24) =     -1.34813  eV     1   --> G_3            
     e( 25 - 25) =     -0.38962  eV     1   --> G_4            
     e( 26 - 26) =     -0.36462  eV     1   --> G_3            
     e( 27 - 27) =      2.23137  eV     1   --> G_4            
     e( 28 - 28) =      2.23886  eV     1   --> G_3            
     e( 29 - 29) =      2.49540  eV     1   --> G_3            
     e( 30 - 30) =      2.61792  eV     1   --> G_4            
     e( 31 - 31) =      2.68032  eV     1   --> G_3            
     e( 32 - 32) =      2.81687  eV     1   --> G_4            
     e( 33 - 33) =      3.37937  eV     1   --> G_4            
     e( 34 - 34) =      3.57161  eV     1   --> G_3            
     e( 35 - 35) =      5.57013  eV     1   --> G_4            
     e( 36 - 36) =      5.57815  eV     1   --> G_3            
     e( 37 - 37) =      5.79498  eV     1   --> G_3            
     e( 38 - 38) =      5.79578  eV     1   --> G_4            
     e( 39 - 39) =      6.53120  eV     1   --> G_4            
     e( 40 - 40) =      6.53391  eV     1   --> G_3            
     e( 41 - 41) =      7.12045  eV     1   --> G_3            
     e( 42 - 42) =      7.12083  eV     1   --> G_4            
     e( 43 - 43) =      8.07461  eV     1   --> G_3            
     e( 44 - 44) =      8.07482  eV     1   --> G_4            
     e( 45 - 45) =      9.05624  eV     1   --> G_4            
     e( 46 - 46) =      9.12356  eV     1   --> G_3            
     e( 47 - 47) =      9.55989  eV     1   --> G_4            
     e( 48 - 48) =      9.67995  eV     1   --> G_3            
     e( 49 - 49) =      9.77000  eV     1   --> G_3            
     e( 50 - 50) =      9.81079  eV     1   --> G_4            
     e( 51 - 51) =     10.80880  eV     1   --> G_3            
     e( 52 - 52) =     10.82541  eV     1   --> G_4            
     e( 53 - 53) =     11.11769  eV     1   --> G_3            
     e( 54 - 54) =     11.27026  eV     1   --> G_4            
     e( 55 - 55) =     11.71434  eV     1   --> G_3            
     e( 56 - 56) =     11.72641  eV     1   --> G_4            
     e( 57 - 57) =     12.39806  eV     1   --> G_4            
     e( 58 - 58) =     12.47113  eV     1   --> G_3            
     e( 59 - 59) =     12.49561  eV     1   --> G_3            
     e( 60 - 60) =     12.53173  eV     1   --> G_4            

 **************************************************************************

 **************************************************************************

                    xk=(   0.09514,   0.16479,   0.00000  )

     Band symmetry, C_s (m)     double point group:

     e(  1 -  2) =    -73.92126  eV     2   --> G_3            
     e(  1 -  2) =    -73.92126  eV     2   --> G_4            
     e(  3 -  3) =    -45.31774  eV     1   --> G_4            
     e(  4 -  4) =    -45.31707  eV     1   --> G_3            
     e(  5 -  5) =    -35.59005  eV     1   --> G_4            
     e(  6 -  6) =    -35.58908  eV     1   --> G_3            
     e(  7 -  7) =    -35.49262  eV     1   --> G_3            
     e(  8 -  8) =    -35.48917  eV     1   --> G_4            
     e(  9 -  9) =    -14.40226  eV     1   --> G_4            
     e( 10 - 10) =    -14.39220  eV     1   --> G_3            
     e( 11 - 11) =    -13.04844  eV     1   --> G_3            
     e( 12 - 12) =    -13.04716  eV     1   --> G_4            
     e( 13 - 13) =     -5.92330  eV     1   --> G_4            
     e( 14 - 14) =     -5.91440  eV     1   --> G_3            
     e( 15 - 15) =     -3.92895  eV     1   --> G_4            
     e( 16 - 16) =     -3.88116  eV     1   --> G_3            
     e( 17 - 17) =     -3.18643  eV     1   --> G_3            
     e( 18 - 18) =     -3.15311  eV     1   --> G_4            
     e( 19 - 19) =     -2.61085  eV     1   --> G_3            
     e( 20 - 20) =     -2.52489  eV     1   --> G_4            
     e( 21 - 21) =     -2.46058  eV     1   --> G_4            
     e( 22 - 22) =     -2.44275  eV     1   --> G_3            
     e( 23 - 23) =     -1.38589  eV     1   --> G_4            
     e( 24 - 24) =     -1.33702  eV     1   --> G_3            
     e( 25 - 25) =     -0.44471  eV     1   --> G_4            
     e( 26 - 26) =     -0.41019  eV     1   --> G_3            
     e( 27 - 27) =      2.17941  eV     1   --> G_3            
     e( 28 - 28) =      2.19754  eV     1   --> G_4            
     e( 29 - 29) =      2.48579  eV     1   --> G_3            
     e( 30 - 30) =      2.58630  eV     1   --> G_4            
     e( 31 - 31) =      2.66648  eV     1   --> G_3            
     e( 32 - 32) =      2.81107  eV     1   --> G_4            
     e( 33 - 33) =      3.46689  eV     1   --> G_4            
     e( 34 - 34) =      3.66066  eV     1   --> G_3            
     e( 35 - 35) =      5.64678  eV     1   --> G_4            
     e( 36 - 36) =      5.65562  eV     1   --> G_3            
     e( 37 - 37) =      5.86523  eV     1   --> G_3            
     e( 38 - 38) =      5.86620  eV     1   --> G_4            
     e( 39 - 39) =      6.64250  eV     1   --> G_4            
     e( 40 - 40) =      6.64551  eV     1   --> G_3            
     e( 41 - 41) =      7.26116  eV     1   --> G_3            
     e( 42 - 42) =      7.26366  eV     1   --> G_4            
     e( 43 - 43) =      8.13717  eV     1   --> G_3            
     e( 44 - 44) =      8.13742  eV     1   --> G_4            
     e( 45 - 45) =      9.01071  eV     1   --> G_4            
     e( 46 - 46) =      9.10220  eV     1   --> G_3            
     e( 47 - 47) =      9.60567  eV     1   --> G_4            
     e( 48 - 48) =      9.72962  eV     1   --> G_3            
     e( 49 - 49) =      9.82312  eV     1   --> G_3            
     e( 50 - 50) =      9.87387  eV     1   --> G_4            
     e( 51 - 51) =     10.72585  eV     1   --> G_3            
     e( 52 - 52) =     10.74776  eV     1   --> G_4            
     e( 53 - 53) =     11.19101  eV     1   --> G_3            
     e( 54 - 54) =     11.36318  eV     1   --> G_4            
     e( 55 - 55) =     11.75188  eV     1   --> G_3            
     e( 56 - 56) =     11.76583  eV     1   --> G_4            
     e( 57 - 57) =     12.39964  eV     1   --> G_4            
     e( 58 - 58) =     12.46788  eV     1   --> G_3            
     e( 59 - 59) =     12.50926  eV     1   --> G_3            
     e( 60 - 60) =     12.52746  eV     1   --> G_4            

 **************************************************************************

 **************************************************************************

                    xk=(   0.10194,   0.17656,   0.00000  )

     Band symmetry, C_s (m)     double point group:

     e(  1 -  2) =    -73.92072  eV     2   --> G_3            
     e(  1 -  2) =    -73.92072  eV     2   --> G_4            
     e(  3 -  3) =    -45.31985  eV     1   --> G_4            
     e(  4 -  4) =    -45.31904  eV     1   --> G_3            
     e(  5 -  5) =    -35.59295  eV     1   --> G_4            
     e(  6 -  6) =    -35.59190  eV     1   --> G_3            
     e(  7 -  7) =    -35.49978  eV     1   --> G_3            
     e(  8 -  8) =    -35.49572  eV     1   --> G_4            
     e(  9 -  9) =    -14.34398  eV     1   --> G_4            
     e( 10 - 10) =    -14.33164  eV     1   --> G_3            
     e( 11 - 11) =    -13.02652  eV     1   --> G_3            
     e( 12 - 12) =    -13.02495  eV     1   --> G_4            
     e( 13 - 13) =     -5.85941  eV     1   --> G_4            
     e( 14 - 14) =     -5.84798  eV     1   --> G_3            
     e( 15 - 15) =     -4.03268  eV     1   --> G_4            
     e( 16 - 16) =     -3.98552  eV     1   --> G_3            
     e( 17 - 17) =     -3.26674  eV     1   --> G_3            
     e( 18 - 18) =     -3.22641  eV     1   --> G_4            
     e( 19 - 19) =     -2.61759  eV     1   --> G_4            
     e( 20 - 20) =     -2.60260  eV     1   --> G_3            
     e( 21 - 21) =     -2.51834  eV     1   --> G_3            
     e( 22 - 22) =     -2.43190  eV     1   --> G_4            
     e( 23 - 23) =     -1.38152  eV     1   --> G_4            
     e( 24 - 24) =     -1.32933  eV     1   --> G_3            
     e( 25 - 25) =     -0.50490  eV     1   --> G_4            
     e( 26 - 26) =     -0.45888  eV     1   --> G_3            
     e( 27 - 27) =      2.12190  eV     1   --> G_3            
     e( 28 - 28) =      2.16869  eV     1   --> G_4            
     e( 29 - 29) =      2.47891  eV     1   --> G_3            
     e( 30 - 30) =      2.55670  eV     1   --> G_4            
     e( 31 - 31) =      2.66050  eV     1   --> G_3            
     e( 32 - 32) =      2.81010  eV     1   --> G_4            
     e( 33 - 33) =      3.55714  eV     1   --> G_4            
     e( 34 - 34) =      3.75137  eV     1   --> G_3            
     e( 35 - 35) =      5.72646  eV     1   --> G_4            
     e( 36 - 36) =      5.73617  eV     1   --> G_3            
     e( 37 - 37) =      5.94008  eV     1   --> G_3            
     e( 38 - 38) =      5.94128  eV     1   --> G_4            
     e( 39 - 39) =      6.74829  eV     1   --> G_4            
     e( 40 - 40) =      6.75160  eV     1   --> G_3            
     e( 41 - 41) =      7.41072  eV     1   --> G_3            
     e( 42 - 42) =      7.41655  eV     1   --> G_4            
     e( 43 - 43) =      8.20311  eV     1   --> G_3            
     e( 44 - 44) =      8.20342  eV     1   --> G_4            
     e( 45 - 45) =      8.96308  eV     1   --> G_4            
     e( 46 - 46) =      9.07881  eV     1   --> G_3            
     e( 47 - 47) =      9.65047  eV     1   --> G_4            
     e( 48 - 48) =      9.76715  eV     1   --> G_3            
     e( 49 - 49) =      9.86481  eV     1   --> G_3            
     e( 50 - 50) =      9.91178  eV     1   --> G_4            
     e( 51 - 51) =     10.67524  eV     1   --> G_3            
     e( 52 - 52) =     10.70409  eV     1   --> G_4            
     e( 53 - 53) =     11.25088  eV     1   --> G_3            
     e( 54 - 54) =     11.44469  eV     1   --> G_4            
     e( 55 - 55) =     11.79161  eV     1   --> G_3            
     e( 56 - 56) =     11.80821  eV     1   --> G_4            
     e( 57 - 57) =     12.40465  eV     1   --> G_4            
     e( 58 - 58) =     12.46810  eV     1   --> G_3            
     e( 59 - 59) =     12.52739  eV     1   --> G_4            
     e( 60 - 60) =     12.52954  eV     1   --> G_3            

 **************************************************************************

 **************************************************************************

                    xk=(   0.10873,   0.18833,   0.00000  )

     Band symmetry, C_s (m)     double point group:

     e(  1 -  2) =    -73.92015  eV     2   --> G_3            
     e(  1 -  2) =    -73.92015  eV     2   --> G_4            
     e(  3 -  3) =    -45.32205  eV     1   --> G_4            
     e(  4 -  4) =    -45.32109  eV     1   --> G_3            
     e(  5 -  5) =    -35.59628  eV     1   --> G_4            
     e(  6 -  6) =    -35.59522  eV     1   --> G_3            
     e(  7 -  7) =    -35.50681  eV     1   --> G_3            
     e(  8 -  8) =    -35.50217  eV     1   --> G_4            
     e(  9 -  9) =    -14.28280  eV     1   --> G_4            
     e( 10 - 10) =    -14.26786  eV     1   --> G_3            
     e( 11 - 11) =    -13.00348  eV     1   --> G_3            
     e( 12 - 12) =    -13.00159  eV     1   --> G_4            
     e( 13 - 13) =     -5.79416  eV     1   --> G_4            
     e( 14 - 14) =     -5.77957  eV     1   --> G_3            
     e( 15 - 15) =     -4.13531  eV     1   --> G_4            
     e( 16 - 16) =     -4.08987  eV     1   --> G_3            
     e( 17 - 17) =     -3.34572  eV     1   --> G_3            
     e( 18 - 18) =     -3.29831  eV     1   --> G_4            
     e( 19 - 19) =     -2.73062  eV     1   --> G_4            
     e( 20 - 20) =     -2.67688  eV     1   --> G_3            
     e( 21 - 21) =     -2.51663  eV     1   --> G_3            
     e( 22 - 22) =     -2.38703  eV     1   --> G_4            
     e( 23 - 23) =     -1.38034  eV     1   --> G_4            
     e( 24 - 24) =     -1.32508  eV     1   --> G_3            
     e( 25 - 25) =     -0.56931  eV     1   --> G_4            
     e( 26 - 26) =     -0.50978  eV     1   --> G_3            
     e( 27 - 27) =      2.06658  eV     1   --> G_3            
     e( 28 - 28) =      2.14420  eV     1   --> G_4            
     e( 29 - 29) =      2.47522  eV     1   --> G_3            
     e( 30 - 30) =      2.53073  eV     1   --> G_4            
     e( 31 - 31) =      2.66286  eV     1   --> G_3            
     e( 32 - 32) =      2.81411  eV     1   --> G_4            
     e( 33 - 33) =      3.64918  eV     1   --> G_4            
     e( 34 - 34) =      3.84283  eV     1   --> G_3            
     e( 35 - 35) =      5.80935  eV     1   --> G_4            
     e( 36 - 36) =      5.82001  eV     1   --> G_3            
     e( 37 - 37) =      6.01942  eV     1   --> G_3            
     e( 38 - 38) =      6.02088  eV     1   --> G_4            
     e( 39 - 39) =      6.85043  eV     1   --> G_4            
     e( 40 - 40) =      6.85399  eV     1   --> G_3            
     e( 41 - 41) =      7.56241  eV     1   --> G_3            
     e( 42 - 42) =      7.57288  eV     1   --> G_4            
     e( 43 - 43) =      8.27208  eV     1   --> G_3            
     e( 44 - 44) =      8.27242  eV     1   --> G_4            
     e( 45 - 45) =      8.91917  eV     1   --> G_4            
     e( 46 - 46) =      9.05891  eV     1   --> G_3            
     e( 47 - 47) =      9.69546  eV     1   --> G_4            
     e( 48 - 48) =      9.80971  eV     1   --> G_3            
     e( 49 - 49) =      9.86761  eV     1   --> G_3            
     e( 50 - 50) =      9.91393  eV     1   --> G_4            
     e( 51 - 51) =     10.66305  eV     1   --> G_3            
     e( 52 - 52) =     10.69966  eV     1   --> G_4            
     e( 53 - 53) =     11.29380  eV     1   --> G_3            
     e( 54 - 54) =     11.51002  eV     1   --> G_4            
     e( 55 - 55) =     11.83135  eV     1   --> G_3            
     e( 56 - 56) =     11.85131  eV     1   --> G_4            
     e( 57 - 57) =     12.41799  eV     1   --> G_4            
     e( 58 - 58) =     12.47830  eV     1   --> G_3            
     e( 59 - 59) =     12.53676  eV     1   --> G_4            
     e( 60 - 60) =     12.55746  eV     1   --> G_3            

 **************************************************************************

 **************************************************************************

                    xk=(   0.11553,   0.20010,   0.00000  )

     Band symmetry, C_s (m)     double point group:

     e(  1 -  2) =    -73.91957  eV     2   --> G_3            
     e(  1 -  2) =    -73.91957  eV     2   --> G_4            
     e(  3 -  3) =    -45.32432  eV     1   --> G_4            
     e(  4 -  4) =    -45.32319  eV     1   --> G_3            
     e(  5 -  5) =    -35.60007  eV     1   --> G_4            
     e(  6 -  6) =    -35.59911  eV     1   --> G_3            
     e(  7 -  7) =    -35.51360  eV     1   --> G_3            
     e(  8 -  8) =    -35.50841  eV     1   --> G_4            
     e(  9 -  9) =    -14.21893  eV     1   --> G_4            
     e( 10 - 10) =    -14.20107  eV     1   --> G_3            
     e( 11 - 11) =    -12.97942  eV     1   --> G_3            
     e( 12 - 12) =    -12.97716  eV     1   --> G_4            
     e( 13 - 13) =     -5.72848  eV     1   --> G_4            
     e( 14 - 14) =     -5.70994  eV     1   --> G_3            
     e( 15 - 15) =     -4.23551  eV     1   --> G_4            
     e( 16 - 16) =     -4.19304  eV     1   --> G_3            
     e( 17 - 17) =     -3.42359  eV     1   --> G_3            
     e( 18 - 18) =     -3.36897  eV     1   --> G_4            
     e( 19 - 19) =     -2.84777  eV     1   --> G_4            
     e( 20 - 20) =     -2.78071  eV     1   --> G_3            
     e( 21 - 21) =     -2.49067  eV     1   --> G_3            
     e( 22 - 22) =     -2.34216  eV     1   --> G_4            
     e( 23 - 23) =     -1.38239  eV     1   --> G_4            
     e( 24 - 24) =     -1.32431  eV     1   --> G_3            
     e( 25 - 25) =     -0.63675  eV     1   --> G_4            
     e( 26 - 26) =     -0.56169  eV     1   --> G_3            
     e( 27 - 27) =      2.01379  eV     1   --> G_3            
     e( 28 - 28) =      2.12308  eV     1   --> G_4            
     e( 29 - 29) =      2.47554  eV     1   --> G_3            
     e( 30 - 30) =      2.51027  eV     1   --> G_4            
     e( 31 - 31) =      2.67334  eV     1   --> G_3            
     e( 32 - 32) =      2.82300  eV     1   --> G_4            
     e( 33 - 33) =      3.74212  eV     1   --> G_4            
     e( 34 - 34) =      3.93419  eV     1   --> G_3            
     e( 35 - 35) =      5.89557  eV     1   --> G_4            
     e( 36 - 36) =      5.90727  eV     1   --> G_3            
     e( 37 - 37) =      6.10310  eV     1   --> G_3            
     e( 38 - 38) =      6.10487  eV     1   --> G_4            
     e( 39 - 39) =      6.95080  eV     1   --> G_4            
     e( 40 - 40) =      6.95454  eV     1   --> G_3            
     e( 41 - 41) =      7.70795  eV     1   --> G_3            
     e( 42 - 42) =      7.72401  eV     1   --> G_4            
     e( 43 - 43) =      8.34361  eV     1   --> G_3            
     e( 44 - 44) =      8.34397  eV     1   --> G_4            
     e( 45 - 45) =      8.88555  eV     1   --> G_4            
     e( 46 - 46) =      9.04882  eV     1   --> G_3            
     e( 47 - 47) =      9.73315  eV     1   --> G_4            
     e( 48 - 48) =      9.83138  eV     1   --> G_3            
     e( 49 - 49) =      9.86059  eV     1   --> G_3            
     e( 50 - 50) =      9.89270  eV     1   --> G_4            
     e( 51 - 51) =     10.68191  eV     1   --> G_3            
     e( 52 - 52) =     10.72624  eV     1   --> G_4            
     e( 53 - 53) =     11.31819  eV     1   --> G_3            
     e( 54 - 54) =     11.55555  eV     1   --> G_4            
     e( 55 - 55) =     11.87009  eV     1   --> G_3            
     e( 56 - 56) =     11.89414  eV     1   --> G_4            
     e( 57 - 57) =     12.44331  eV     1   --> G_4            
     e( 58 - 58) =     12.50014  eV     1   --> G_3            
     e( 59 - 59) =     12.55993  eV     1   --> G_4            
     e( 60 - 60) =     12.59519  eV     1   --> G_3            

 **************************************************************************

 **************************************************************************

                    xk=(   0.12233,   0.21188,   0.00000  )

     Band symmetry, C_s (m)     double point group:

     e(  1 -  2) =    -73.91898  eV     2   --> G_3            
     e(  1 -  2) =    -73.91898  eV     2   --> G_4            
     e(  3 -  3) =    -45.32666  eV     1   --> G_4            
     e(  4 -  4) =    -45.32534  eV     1   --> G_3            
     e(  5 -  5) =    -35.60434  eV     1   --> G_4            
     e(  6 -  6) =    -35.60361  eV     1   --> G_3            
     e(  7 -  7) =    -35.52004  eV     1   --> G_3            
     e(  8 -  8) =    -35.51440  eV     1   --> G_4            
     e(  9 -  9) =    -14.15259  eV     1   --> G_4            
     e( 10 - 10) =    -14.13147  eV     1   --> G_3            
     e( 11 - 11) =    -12.95441  eV     1   --> G_3            
     e( 12 - 12) =    -12.95173  eV     1   --> G_4            
     e( 13 - 13) =     -5.66356  eV     1   --> G_4            
     e( 14 - 14) =     -5.64006  eV     1   --> G_3            
     e( 15 - 15) =     -4.33176  eV     1   --> G_4            
     e( 16 - 16) =     -4.29374  eV     1   --> G_3            
     e( 17 - 17) =     -3.50081  eV     1   --> G_3            
     e( 18 - 18) =     -3.43894  eV     1   --> G_4            
     e( 19 - 19) =     -2.96617  eV     1   --> G_4            
     e( 20 - 20) =     -2.88897  eV     1   --> G_3            
     e( 21 - 21) =     -2.46554  eV     1   --> G_3            
     e( 22 - 22) =     -2.30003  eV     1   --> G_4            
     e( 23 - 23) =     -1.38770  eV     1   --> G_4            
     e( 24 - 24) =     -1.32710  eV     1   --> G_3            
     e( 25 - 25) =     -0.70569  eV     1   --> G_4            
     e( 26 - 26) =     -0.61316  eV     1   --> G_3            
     e( 27 - 27) =      1.96398  eV     1   --> G_3            
     e( 28 - 28) =      2.10428  eV     1   --> G_4            
     e( 29 - 29) =      2.48072  eV     1   --> G_3            
     e( 30 - 30) =      2.49718  eV     1   --> G_4            
     e( 31 - 31) =      2.69130  eV     1   --> G_3            
     e( 32 - 32) =      2.83652  eV     1   --> G_4            
     e( 33 - 33) =      3.83512  eV     1   --> G_4            
     e( 34 - 34) =      4.02459  eV     1   --> G_3            
     e( 35 - 35) =      5.98517  eV     1   --> G_4            
     e( 36 - 36) =      5.99804  eV     1   --> G_3            
     e( 37 - 37) =      6.19096  eV     1   --> G_3            
     e( 38 - 38) =      6.19309  eV     1   --> G_4            
     e( 39 - 39) =      7.05094  eV     1   --> G_4            
     e( 40 - 40) =      7.05469  eV     1   --> G_3            
     e( 41 - 41) =      7.83769  eV     1   --> G_3            
     e( 42 - 42) =      7.85863  eV     1   --> G_4            
     e( 43 - 43) =      8.41715  eV     1   --> G_3            
     e( 44 - 44) =      8.41750  eV     1   --> G_4            
     e( 45 - 45) =      8.87090  eV     1   --> G_4            
     e( 46 - 46) =      9.05584  eV     1   --> G_3            
     e( 47 - 47) =      9.73673  eV     1   --> G_4            
     e( 48 - 48) =      9.77302  eV     1   --> G_3            
     e( 49 - 49) =      9.88848  eV     1   --> G_4            
     e( 50 - 50) =      9.91581  eV     1   --> G_3            
     e( 51 - 51) =     10.71556  eV     1   --> G_3            
     e( 52 - 52) =     10.76833  eV     1   --> G_4            
     e( 53 - 53) =     11.32472  eV     1   --> G_3            
     e( 54 - 54) =     11.58047  eV     1   --> G_4            
     e( 55 - 55) =     11.90777  eV     1   --> G_3            
     e( 56 - 56) =     11.93675  eV     1   --> G_4            
[...]
     e( 39 - 40) =      5.80871  eV     2   --> G_5  D_5       
     e( 41 - 42) =      6.57803  eV     2   --> G_5  D_5       
     e( 43 - 44) =      7.78236  eV     2   --> G_5  D_5       
     e( 45 - 46) =      8.92146  eV     2   --> G_5  D_5       
     e( 47 - 48) =      9.10952  eV     2   --> G_5  D_5       
     e( 49 - 50) =      9.93457  eV     2   --> G_5  D_5       
     e( 51 - 52) =     10.66075  eV     2   --> G_5  D_5       
     e( 53 - 54) =     11.24893  eV     2   --> G_5  D_5       
     e( 55 - 56) =     11.90177  eV     2   --> G_5  D_5       
     e( 57 - 58) =     12.22212  eV     2   --> G_5  D_5       
     e( 59 - 60) =     12.58454  eV     2   --> G_5  D_5       

 **************************************************************************

 **************************************************************************

                    xk=(   0.07143,   0.04124,   0.00000  )

     Band symmetry, C_2v (mm2)  double point group:

     e(  1 -  2) =    -73.92451  eV     2   --> G_5  D_5       
     e(  3 -  4) =    -45.30517  eV     2   --> G_5  D_5       
     e(  5 -  6) =    -35.57794  eV     2   --> G_5  D_5       
     e(  7 -  8) =    -35.44364  eV     2   --> G_5  D_5       
     e(  9 - 10) =    -14.74017  eV     2   --> G_5  D_5       
     e( 11 - 12) =    -13.17524  eV     2   --> G_5  D_5       
     e( 13 - 14) =     -6.31601  eV     2   --> G_5  D_5       
     e( 15 - 16) =     -3.20742  eV     2   --> G_5  D_5       
     e( 17 - 18) =     -2.81453  eV     2   --> G_5  D_5       
     e( 19 - 20) =     -2.52036  eV     2   --> G_5  D_5       
     e( 21 - 22) =     -1.85487  eV     2   --> G_5  D_5       
     e( 23 - 24) =     -1.52477  eV     2   --> G_5  D_5       
     e( 25 - 26) =     -0.16160  eV     2   --> G_5  D_5       
     e( 27 - 28) =      2.57765  eV     2   --> G_5  D_5       
     e( 29 - 30) =      2.73187  eV     2   --> G_5  D_5       
     e( 31 - 32) =      2.88790  eV     2   --> G_5  D_5       
     e( 33 - 34) =      3.04670  eV     2   --> G_5  D_5       
     e( 35 - 36) =      5.09592  eV     2   --> G_5  D_5       
     e( 37 - 38) =      5.44306  eV     2   --> G_5  D_5       
     e( 39 - 40) =      5.72739  eV     2   --> G_5  D_5       
     e( 41 - 42) =      6.53631  eV     2   --> G_5  D_5       
     e( 43 - 44) =      7.75427  eV     2   --> G_5  D_5       
     e( 45 - 46) =      8.82709  eV     2   --> G_5  D_5       
     e( 47 - 48) =      9.09150  eV     2   --> G_5  D_5       
     e( 49 - 50) =      9.99425  eV     2   --> G_5  D_5       
     e( 51 - 52) =     10.59844  eV     2   --> G_5  D_5       
     e( 53 - 54) =     11.24563  eV     2   --> G_5  D_5       
     e( 55 - 56) =     12.00702  eV     2   --> G_5  D_5       
     e( 57 - 58) =     12.17966  eV     2   --> G_5  D_5       
     e( 59 - 60) =     12.58296  eV     2   --> G_5  D_5       

 **************************************************************************

 **************************************************************************

                    xk=(   0.06122,   0.03535,   0.00000  )

     Band symmetry, C_2v (mm2)  double point group:

     e(  1 -  2) =    -73.92472  eV     2   --> G_5  D_5       
     e(  3 -  4) =    -45.30436  eV     2   --> G_5  D_5       
     e(  5 -  6) =    -35.57742  eV     2   --> G_5  D_5       
     e(  7 -  8) =    -35.44022  eV     2   --> G_5  D_5       
     e(  9 - 10) =    -14.76215  eV     2   --> G_5  D_5       
     e( 11 - 12) =    -13.18341  eV     2   --> G_5  D_5       
     e( 13 - 14) =     -6.34234  eV     2   --> G_5  D_5       
     e( 15 - 16) =     -3.16281  eV     2   --> G_5  D_5       
     e( 17 - 18) =     -2.82247  eV     2   --> G_5  D_5       
     e( 19 - 20) =     -2.45487  eV     2   --> G_5  D_5       
     e( 21 - 22) =     -1.82862  eV     2   --> G_5  D_5       
     e( 23 - 24) =     -1.54441  eV     2   --> G_5  D_5       
     e( 25 - 26) =     -0.14913  eV     2   --> G_5  D_5       
     e( 27 - 28) =      2.61291  eV     2   --> G_5  D_5       
     e( 29 - 30) =      2.73589  eV     2   --> G_5  D_5       
     e( 31 - 32) =      2.91231  eV     2   --> G_5  D_5       
     e( 33 - 34) =      3.02852  eV     2   --> G_5  D_5       
     e( 35 - 36) =      5.04241  eV     2   --> G_5  D_5       
     e( 37 - 38) =      5.41642  eV     2   --> G_5  D_5       
     e( 39 - 40) =      5.65712  eV     2   --> G_5  D_5       
     e( 41 - 42) =      6.50090  eV     2   --> G_5  D_5       
     e( 43 - 44) =      7.72979  eV     2   --> G_5  D_5       
     e( 45 - 46) =      8.73985  eV     2   --> G_5  D_5       
     e( 47 - 48) =      9.07482  eV     2   --> G_5  D_5       
     e( 49 - 50) =     10.05139  eV     2   --> G_5  D_5       
     e( 51 - 52) =     10.54751  eV     2   --> G_5  D_5       
     e( 53 - 54) =     11.23691  eV     2   --> G_5  D_5       
     e( 55 - 56) =     12.06858  eV     2   --> G_5  D_5       
     e( 57 - 58) =     12.18286  eV     2   --> G_5  D_5       
     e( 59 - 60) =     12.58269  eV     2   --> G_5  D_5       

 **************************************************************************

 **************************************************************************

                    xk=(   0.05102,   0.02946,   0.00000  )

     Band symmetry, C_2v (mm2)  double point group:

     e(  1 -  2) =    -73.92491  eV     2   --> G_5  D_5       
     e(  3 -  4) =    -45.30367  eV     2   --> G_5  D_5       
     e(  5 -  6) =    -35.57700  eV     2   --> G_5  D_5       
     e(  7 -  8) =    -35.43727  eV     2   --> G_5  D_5       
     e(  9 - 10) =    -14.78084  eV     2   --> G_5  D_5       
     e( 11 - 12) =    -13.19036  eV     2   --> G_5  D_5       
     e( 13 - 14) =     -6.36480  eV     2   --> G_5  D_5       
     e( 15 - 16) =     -3.12815  eV     2   --> G_5  D_5       
     e( 17 - 18) =     -2.82536  eV     2   --> G_5  D_5       
     e( 19 - 20) =     -2.39279  eV     2   --> G_5  D_5       
     e( 21 - 22) =     -1.81012  eV     2   --> G_5  D_5       
     e( 23 - 24) =     -1.56319  eV     2   --> G_5  D_5       
     e( 25 - 26) =     -0.13910  eV     2   --> G_5  D_5       
     e( 27 - 28) =      2.64318  eV     2   --> G_5  D_5       
     e( 29 - 30) =      2.73486  eV     2   --> G_5  D_5       
     e( 31 - 32) =      2.93661  eV     2   --> G_5  D_5       
     e( 33 - 34) =      3.01865  eV     2   --> G_5  D_5       
     e( 35 - 36) =      4.99231  eV     2   --> G_5  D_5       
     e( 37 - 38) =      5.39377  eV     2   --> G_5  D_5       
     e( 39 - 40) =      5.59845  eV     2   --> G_5  D_5       
     e( 41 - 42) =      6.47136  eV     2   --> G_5  D_5       
     e( 43 - 44) =      7.70898  eV     2   --> G_5  D_5       
     e( 45 - 46) =      8.66258  eV     2   --> G_5  D_5       
     e( 47 - 48) =      9.05960  eV     2   --> G_5  D_5       
     e( 49 - 50) =     10.10165  eV     2   --> G_5  D_5       
     e( 51 - 52) =     10.50964  eV     2   --> G_5  D_5       
     e( 53 - 54) =     11.22642  eV     2   --> G_5  D_5       
     e( 55 - 56) =     12.04111  eV     2   --> G_5  D_5       
     e( 57 - 58) =     12.27230  eV     2   --> G_5  D_5       
     e( 59 - 60) =     12.58341  eV     2   --> G_5  D_5       

 **************************************************************************

 **************************************************************************

                    xk=(   0.04082,   0.02357,   0.00000  )

     Band symmetry, C_2v (mm2)  double point group:

     e(  1 -  2) =    -73.92506  eV     2   --> G_5  D_5       
     e(  3 -  4) =    -45.30310  eV     2   --> G_5  D_5       
     e(  5 -  6) =    -35.57666  eV     2   --> G_5  D_5       
     e(  7 -  8) =    -35.43483  eV     2   --> G_5  D_5       
     e(  9 - 10) =    -14.79618  eV     2   --> G_5  D_5       
     e( 11 - 12) =    -13.19606  eV     2   --> G_5  D_5       
     e( 13 - 14) =     -6.38330  eV     2   --> G_5  D_5       
     e( 15 - 16) =     -3.10326  eV     2   --> G_5  D_5       
     e( 17 - 18) =     -2.82367  eV     2   --> G_5  D_5       
     e( 19 - 20) =     -2.33570  eV     2   --> G_5  D_5       
     e( 21 - 22) =     -1.80058  eV     2   --> G_5  D_5       
     e( 23 - 24) =     -1.57884  eV     2   --> G_5  D_5       
     e( 25 - 26) =     -0.13125  eV     2   --> G_5  D_5       
     e( 27 - 28) =      2.66783  eV     2   --> G_5  D_5       
     e( 29 - 30) =      2.73028  eV     2   --> G_5  D_5       
     e( 31 - 32) =      2.95980  eV     2   --> G_5  D_5       
     e( 33 - 34) =      3.01497  eV     2   --> G_5  D_5       
     e( 35 - 36) =      4.94746  eV     2   --> G_5  D_5       
     e( 37 - 38) =      5.37518  eV     2   --> G_5  D_5       
     e( 39 - 40) =      5.55138  eV     2   --> G_5  D_5       
     e( 41 - 42) =      6.44744  eV     2   --> G_5  D_5       
     e( 43 - 44) =      7.69189  eV     2   --> G_5  D_5       
     e( 45 - 46) =      8.59709  eV     2   --> G_5  D_5       
     e( 47 - 48) =      9.04636  eV     2   --> G_5  D_5       
     e( 49 - 50) =     10.14089  eV     2   --> G_5  D_5       
     e( 51 - 52) =     10.48625  eV     2   --> G_5  D_5       
     e( 53 - 54) =     11.21619  eV     2   --> G_5  D_5       
     e( 55 - 56) =     11.99765  eV     2   --> G_5  D_5       
     e( 57 - 58) =     12.37143  eV     2   --> G_5  D_5       
     e( 59 - 60) =     12.58489  eV     2   --> G_5  D_5       

 **************************************************************************

 **************************************************************************

                    xk=(   0.03061,   0.01767,   0.00000  )

     Band symmetry, C_2v (mm2)  double point group:

     e(  1 -  2) =    -73.92518  eV     2   --> G_5  D_5       
     e(  3 -  4) =    -45.30265  eV     2   --> G_5  D_5       
     e(  5 -  6) =    -35.57641  eV     2   --> G_5  D_5       
     e(  7 -  8) =    -35.43292  eV     2   --> G_5  D_5       
     e(  9 - 10) =    -14.80815  eV     2   --> G_5  D_5       
     e( 11 - 12) =    -13.20051  eV     2   --> G_5  D_5       
     e( 13 - 14) =     -6.39775  eV     2   --> G_5  D_5       
     e( 15 - 16) =     -3.08687  eV     2   --> G_5  D_5       
     e( 17 - 18) =     -2.81894  eV     2   --> G_5  D_5       
     e( 19 - 20) =     -2.28562  eV     2   --> G_5  D_5       
     e( 21 - 22) =     -1.79992  eV     2   --> G_5  D_5       
     e( 23 - 24) =     -1.58969  eV     2   --> G_5  D_5       
     e( 25 - 26) =     -0.12537  eV     2   --> G_5  D_5       
     e( 27 - 28) =      2.68588  eV     2   --> G_5  D_5       
     e( 29 - 30) =      2.72520  eV     2   --> G_5  D_5       
     e( 31 - 32) =      2.98027  eV     2   --> G_5  D_5       
     e( 33 - 34) =      3.01495  eV     2   --> G_5  D_5       
     e( 35 - 36) =      4.90985  eV     2   --> G_5  D_5       
     e( 37 - 38) =      5.36066  eV     2   --> G_5  D_5       
     e( 39 - 40) =      5.51552  eV     2   --> G_5  D_5       
     e( 41 - 42) =      6.42895  eV     2   --> G_5  D_5       
     e( 43 - 44) =      7.67856  eV     2   --> G_5  D_5       
     e( 45 - 46) =      8.54477  eV     2   --> G_5  D_5       
     e( 47 - 48) =      9.03559  eV     2   --> G_5  D_5       
     e( 49 - 50) =     10.16677  eV     2   --> G_5  D_5       
     e( 51 - 52) =     10.47690  eV     2   --> G_5  D_5       
     e( 53 - 54) =     11.20741  eV     2   --> G_5  D_5       
     e( 55 - 56) =     11.95738  eV     2   --> G_5  D_5       
     e( 57 - 58) =     12.45785  eV     2   --> G_5  D_5       
     e( 59 - 60) =     12.58719  eV     2   --> G_5  D_5       

 **************************************************************************

 **************************************************************************

                    xk=(   0.02041,   0.01178,   0.00000  )

     Band symmetry, C_2v (mm2)  double point group:

     e(  1 -  2) =    -73.92526  eV     2   --> G_5  D_5       
     e(  3 -  4) =    -45.30233  eV     2   --> G_5  D_5       
     e(  5 -  6) =    -35.57623  eV     2   --> G_5  D_5       
     e(  7 -  8) =    -35.43154  eV     2   --> G_5  D_5       
     e(  9 - 10) =    -14.81672  eV     2   --> G_5  D_5       
     e( 11 - 12) =    -13.20370  eV     2   --> G_5  D_5       
     e( 13 - 14) =     -6.40812  eV     2   --> G_5  D_5       
     e( 15 - 16) =     -3.07708  eV     2   --> G_5  D_5       
     e( 17 - 18) =     -2.81339  eV     2   --> G_5  D_5       
     e( 19 - 20) =     -2.24541  eV     2   --> G_5  D_5       
     e( 21 - 22) =     -1.80552  eV     2   --> G_5  D_5       
     e( 23 - 24) =     -1.59567  eV     2   --> G_5  D_5       
     e( 25 - 26) =     -0.12129  eV     2   --> G_5  D_5       
     e( 27 - 28) =      2.69558  eV     2   --> G_5  D_5       
     e( 29 - 30) =      2.72334  eV     2   --> G_5  D_5       
     e( 31 - 32) =      2.99627  eV     2   --> G_5  D_5       
     e( 33 - 34) =      3.01649  eV     2   --> G_5  D_5       
     e( 35 - 36) =      4.88139  eV     2   --> G_5  D_5       
     e( 37 - 38) =      5.35027  eV     2   --> G_5  D_5       
     e( 39 - 40) =      5.49037  eV     2   --> G_5  D_5       
     e( 41 - 42) =      6.41580  eV     2   --> G_5  D_5       
     e( 43 - 44) =      7.66902  eV     2   --> G_5  D_5       
     e( 45 - 46) =      8.50666  eV     2   --> G_5  D_5       
     e( 47 - 48) =      9.02763  eV     2   --> G_5  D_5       
     e( 49 - 50) =     10.18052  eV     2   --> G_5  D_5       
     e( 51 - 52) =     10.47760  eV     2   --> G_5  D_5       
     e( 53 - 54) =     11.20076  eV     2   --> G_5  D_5       
     e( 55 - 56) =     11.92542  eV     2   --> G_5  D_5       
     e( 57 - 58) =     12.52275  eV     2   --> G_5  D_5       
     e( 59 - 60) =     12.59128  eV     2   --> G_5  D_5       

 **************************************************************************

 **************************************************************************

                    xk=(   0.01020,   0.00589,   0.00000  )

     Band symmetry, C_2v (mm2)  double point group:

     e(  1 -  2) =    -73.92531  eV     2   --> G_5  D_5       
     e(  3 -  4) =    -45.30214  eV     2   --> G_5  D_5       
     e(  5 -  6) =    -35.57613  eV     2   --> G_5  D_5       
     e(  7 -  8) =    -35.43070  eV     2   --> G_5  D_5       
     e(  9 - 10) =    -14.82187  eV     2   --> G_5  D_5       
     e( 11 - 12) =    -13.20562  eV     2   --> G_5  D_5       
     e( 13 - 14) =     -6.41435  eV     2   --> G_5  D_5       
     e( 15 - 16) =     -3.07205  eV     2   --> G_5  D_5       
     e( 17 - 18) =     -2.80913  eV     2   --> G_5  D_5       
     e( 19 - 20) =     -2.21877  eV     2   --> G_5  D_5       
     e( 21 - 22) =     -1.81240  eV     2   --> G_5  D_5       
     e( 23 - 24) =     -1.59821  eV     2   --> G_5  D_5       
     e( 25 - 26) =     -0.11890  eV     2   --> G_5  D_5       
     e( 27 - 28) =      2.69778  eV     2   --> G_5  D_5       
     e( 29 - 30) =      2.72532  eV     2   --> G_5  D_5       
     e( 31 - 32) =      3.00628  eV     2   --> G_5  D_5       
     e( 33 - 34) =      3.01817  eV     2   --> G_5  D_5       
     e( 35 - 36) =      4.86363  eV     2   --> G_5  D_5       
     e( 37 - 38) =      5.34403  eV     2   --> G_5  D_5       
     e( 39 - 40) =      5.47549  eV     2   --> G_5  D_5       
     e( 41 - 42) =      6.40793  eV     2   --> G_5  D_5       
     e( 43 - 44) =      7.66329  eV     2   --> G_5  D_5       
     e( 45 - 46) =      8.48349  eV     2   --> G_5  D_5       
     e( 47 - 48) =      9.02276  eV     2   --> G_5  D_5       
     e( 49 - 50) =     10.18619  eV     2   --> G_5  D_5       
     e( 51 - 52) =     10.48179  eV     2   --> G_5  D_5       
     e( 53 - 54) =     11.19664  eV     2   --> G_5  D_5       
     e( 55 - 56) =     11.90488  eV     2   --> G_5  D_5       
     e( 57 - 58) =     12.55813  eV     2   --> G_5  D_5       
     e( 59 - 60) =     12.59970  eV     2   --> G_5  D_5       

 **************************************************************************

 **************************************************************************

                    xk=(   0.00000,   0.00000,   0.00000  )

     double point group D_3h (-62m)
     there are  9 classes and  3 irreducible representations
     the character table:

       E     -E    2C3   -2C3   3C2'  s_h  2S3   -2S3   3s_v
                               -3C2' -s_h'             -3s_v
G_7    2.00 -2.00  1.00 -1.00  0.00  0.00  1.73 -1.73  0.00
G_8    2.00 -2.00  1.00 -1.00  0.00  0.00 -1.73  1.73  0.00
G_9    2.00 -2.00 -2.00  2.00  0.00  0.00  0.00  0.00  0.00

     the symmetry operations in each class and the name of the first element:

     E             1
                                                                 
     -E           -1
                                                                 
     2C3           3    4
                                                                 
     -2C3         -3   -4
                                                                 
      3C2'-3C2'    2   -6    5   -2   -5    6
                                                                 
     2S3           9   10
                                                                 
     -2S3         -9  -10
                                                                 
      3s_v-3s_v    7   -7
                                                                 
      3s_v-3s_v    8   -8  -11  -12   11   12
                                                                 

     Band symmetry, D_3h (-62m) double point group:

     e(  1 -  2) =    -73.92533  eV     2   --> G_7            
     e(  3 -  4) =    -45.30208  eV     2   --> G_8            
     e(  5 -  6) =    -35.57609  eV     2   --> G_8            
     e(  7 -  8) =    -35.43043  eV     2   --> G_9            
     e(  9 - 10) =    -14.82359  eV     2   --> G_7            
     e( 11 - 12) =    -13.20625  eV     2   --> G_8            
     e( 13 - 14) =     -6.41643  eV     2   --> G_7            
     e( 15 - 16) =     -3.07052  eV     2   --> G_9            
     e( 17 - 18) =     -2.80754  eV     2   --> G_8            
     e( 19 - 20) =     -2.20935  eV     2   --> G_8            
     e( 21 - 22) =     -1.81543  eV     2   --> G_7            
     e( 23 - 24) =     -1.59885  eV     2   --> G_9            
     e( 25 - 26) =     -0.11811  eV     2   --> G_7            
     e( 27 - 28) =      2.69771  eV     2   --> G_7            
     e( 29 - 30) =      2.72669  eV     2   --> G_9            
     e( 31 - 32) =      3.00959  eV     2   --> G_8            
     e( 33 - 34) =      3.01896  eV     2   --> G_9            
     e( 35 - 36) =      4.85759  eV     2   --> G_7            
     e( 37 - 38) =      5.34194  eV     2   --> G_8            
     e( 39 - 40) =      5.47057  eV     2   --> G_7            
     e( 41 - 42) =      6.40531  eV     2   --> G_7            
     e( 43 - 44) =      7.66138  eV     2   --> G_8            
     e( 45 - 46) =      8.47571  eV     2   --> G_8            
     e( 47 - 48) =      9.02112  eV     2   --> G_7            
     e( 49 - 50) =     10.18760  eV     2   --> G_8            
     e( 51 - 52) =     10.48389  eV     2   --> G_9            
     e( 53 - 54) =     11.19525  eV     2   --> G_8            
     e( 55 - 56) =     11.89780  eV     2   --> G_7            
     e( 57 - 58) =     12.56680  eV     2   --> G_7            
     e( 59 - 60) =     12.60607  eV     2   --> G_9            

 **************************************************************************
 
     BANDS        :   1m38.67s CPU   1m47.15s WALL

 
   This run was terminated on:  23: 4: 3   6Jul2023            

=------------------------------------------------------------------------------=
   JOB DONE.
=------------------------------------------------------------------------------=
