
     Program PWSCF v.7.0 starts on  6Jul2023 at 18:15:34 

     This program is part of the open-source Quantum ESPRESSO suite
     for quantum simulation of materials; please cite
         "P. Giannozzi et al., J. Phys.:Condens. Matter 21 395502 (2009);
         "P. Giannozzi et al., J. Phys.:Condens. Matter 29 465901 (2017);
         "P. Giannozzi et al., J. Chem. Phys. 152 154105 (2020);
          URL http://www.quantum-espresso.org", 
     in publications or presentations arising from this work. More details at
     http://www.quantum-espresso.org/quote

     Parallel version (MPI), running on   144 processors

     MPI processes distributed on     2 nodes
     K-points division:     npool     =       2
     R & G space division:  proc/nbgrp/npool/nimage =      72
     163324 MiB available memory on the printing compute node when the environment starts
 
     Waiting for input...
     Reading input from standard input

     Current dimensions of program PWSCF are:
     Max number of different atomic species (ntypx) = 10
     Max number of k-points (npk) =  40000
     Max angular momentum in pseudopotentials (lmaxx) =  4

     Atomic positions and unit cell read from directory:
     ./MoS2.save/
     Atomic positions from file used, from input discarded
 
     Message from routine setup:
     using ibrav=0 with symmetry is DISCOURAGED, use correct ibrav instead

     Subspace diagonalization in iterative solution of the eigenvalue problem:
     one sub-group per band group will be used
     scalapack distributed-memory algorithm (size of sub-group:  8*  8 procs)

 
     Parallelization info
     --------------------
     sticks:   dense  smooth     PW     G-vecs:    dense   smooth      PW
     Min          13      13      3                 1657     1657     233
     Max          14      14      4                 1698     1698     268
     Sum        1003    1003    283               120979   120979   18475
 
     Using Slab Decomposition
 


     bravais-lattice index     =            0
     lattice parameter (alat)  =       6.0170  a.u.
     unit-cell volume          =     896.2879 (a.u.)^3
     number of atoms/cell      =            3
     number of atomic types    =            2
     number of electrons       =        26.00
     number of Kohn-Sham states=           50
     kinetic-energy cutoff     =     100.0000  Ry
     charge density cutoff     =     400.0000  Ry
     Exchange-correlation= PBE
                           (   1   4   3   4   0   0   0)
     Non magnetic calculation with spin-orbit


     celldm(1)=   6.017014  celldm(2)=   0.000000  celldm(3)=   0.000000
     celldm(4)=   0.000000  celldm(5)=   0.000000  celldm(6)=   0.000000

     crystal axes: (cart. coord. in units of alat)
               a(1) = (   1.000000   0.000000   0.000000 )  
               a(2) = (  -0.500000   0.866025   0.000000 )  
               a(3) = (   0.000000   0.000000   4.750878 )  

     reciprocal axes: (cart. coord. in units 2 pi/alat)
               b(1) = (  1.000000  0.577350  0.000000 )  
               b(2) = (  0.000000  1.154701  0.000000 )  
               b(3) = (  0.000000  0.000000  0.210487 )  


     PseudoPot. # 1 for S  read from file:
     /u/danielhg/pseudo/S-nc-fr-pbe-dojo.UPF
     MD5 check sum: a7319d53700e7dada26ada44d0048388
     Pseudo is Norm-conserving + core correction, Zval =  6.0
     Generated using ONCVPSP code by D. R. Hamann
     Using radial grid of 1146 points, 10 beta functions with: 
                l(1) =   0
                l(2) =   0
                l(3) =   1
                l(4) =   1
                l(5) =   1
                l(6) =   1
                l(7) =   2
                l(8) =   2
                l(9) =   2
               l(10) =   2

     PseudoPot. # 2 for Mo read from file:
     /u/danielhg/pseudo/Mo-nc-fr-pbe-dojo.UPF
     MD5 check sum: 4e1c3579de4f68baf863f15f5be96aa1
     Pseudo is Norm-conserving + core correction, Zval = 14.0
     Generated using ONCVPSP code by D. R. Hamann
     Using radial grid of 1640 points, 10 beta functions with: 
                l(1) =   0
                l(2) =   0
                l(3) =   1
                l(4) =   1
                l(5) =   1
                l(6) =   1
                l(7) =   2
                l(8) =   2
                l(9) =   2
               l(10) =   2

     atomic species   valence    mass     pseudopotential
        S              6.00    32.06500     S ( 1.00)
        Mo            14.00    95.95000     Mo( 1.00)

      6 Sym. Ops. (no inversion) found


                                    s                        frac. trans.

      isym =  1     identity                                     

 cryst.   s( 1) = (     1          0          0      )
                  (     0          1          0      )
                  (     0          0          1      )

 cart.    s( 1) = (  1.0000000 -0.0000000  0.0000000 )
                  (  0.0000000  1.0000000  0.0000000 )
                  (  0.0000000  0.0000000  1.0000000 )


      isym =  2     120 deg rotation - cryst. axis [0,0,1]       

 cryst.   s( 2) = (     0          1          0      )
                  (    -1         -1          0      )
                  (     0          0          1      )

 cart.    s( 2) = ( -0.5000000 -0.8660254  0.0000000 )
                  (  0.8660254 -0.5000000  0.0000000 )
                  (  0.0000000  0.0000000  1.0000000 )


      isym =  3     120 deg rotation - cryst. axis [0,0,-1]      

 cryst.   s( 3) = (    -1         -1          0      )
                  (     1          0          0      )
                  (     0          0          1      )

 cart.    s( 3) = ( -0.5000000  0.8660254  0.0000000 )
                  ( -0.8660254 -0.5000000  0.0000000 )
                  (  0.0000000  0.0000000  1.0000000 )


      isym =  4     inv. 180 deg rotation - cart. axis [1,0,0]   

 cryst.   s( 4) = (    -1          0          0      )
                  (     1          1          0      )
                  (     0          0          1      )

 cart.    s( 4) = ( -1.0000000 -0.0000000  0.0000000 )
                  (  0.0000000  1.0000000  0.0000000 )
                  (  0.0000000  0.0000000  1.0000000 )


      isym =  5     inv. 180 deg rotation - cryst. axis [0,1,0]  

 cryst.   s( 5) = (     1          1          0      )
                  (     0         -1          0      )
                  (     0          0          1      )

 cart.    s( 5) = (  0.5000000  0.8660254  0.0000000 )
                  (  0.8660254 -0.5000000  0.0000000 )
                  (  0.0000000  0.0000000  1.0000000 )


      isym =  6     inv. 180 deg rotation - cryst. axis [1,1,0]  

 cryst.   s( 6) = (     0         -1          0      )
                  (    -1          0          0      )
                  (     0          0          1      )

 cart.    s( 6) = (  0.5000000 -0.8660254  0.0000000 )
                  ( -0.8660254 -0.5000000  0.0000000 )
                  (  0.0000000  0.0000000  1.0000000 )


   Cartesian axes

     site n.     atom                  positions (alat units)
         1           Mo  tau(   1) = (   0.0000000   0.0000000   2.8465349  )
         2           S   tau(   2) = (   0.5000000   0.2886751   3.3375913  )
         3           S   tau(   3) = (   0.5000000   0.2886751   2.3554785  )

   Crystallographic axes

     site n.     atom                  positions (cryst. coord.)
         1           Mo  tau(   1) = (  0.0000000  0.0000000  0.5991597  )
         2           S   tau(   2) = (  0.6666667  0.3333333  0.7025209  )
         3           S   tau(   3) = (  0.6666667  0.3333333  0.4957985  )

     number of k points=   128
                       cart. coord. in units 2pi/alat
        k(    1) = (   0.0000000   0.0000000   0.0000000), wk =   0.0078125
        k(    2) = (   0.0067959   0.0117709   0.0000000), wk =   0.0078125
        k(    3) = (   0.0135918   0.0235418   0.0000000), wk =   0.0078125
        k(    4) = (   0.0203878   0.0353126   0.0000000), wk =   0.0078125
        k(    5) = (   0.0271837   0.0470835   0.0000000), wk =   0.0078125
        k(    6) = (   0.0339796   0.0588544   0.0000000), wk =   0.0078125
        k(    7) = (   0.0407755   0.0706253   0.0000000), wk =   0.0078125
        k(    8) = (   0.0475714   0.0823961   0.0000000), wk =   0.0078125
        k(    9) = (   0.0543673   0.0941670   0.0000000), wk =   0.0078125
        k(   10) = (   0.0611633   0.1059379   0.0000000), wk =   0.0078125
        k(   11) = (   0.0679592   0.1177088   0.0000000), wk =   0.0078125
        k(   12) = (   0.0747551   0.1294796   0.0000000), wk =   0.0078125
        k(   13) = (   0.0815510   0.1412505   0.0000000), wk =   0.0078125
        k(   14) = (   0.0883469   0.1530214   0.0000000), wk =   0.0078125
        k(   15) = (   0.0951429   0.1647923   0.0000000), wk =   0.0078125
        k(   16) = (   0.1019388   0.1765631   0.0000000), wk =   0.0078125
        k(   17) = (   0.1087347   0.1883340   0.0000000), wk =   0.0078125
        k(   18) = (   0.1155306   0.2001049   0.0000000), wk =   0.0078125
        k(   19) = (   0.1223265   0.2118758   0.0000000), wk =   0.0078125
        k(   20) = (   0.1291224   0.2236466   0.0000000), wk =   0.0078125
        k(   21) = (   0.1359184   0.2354175   0.0000000), wk =   0.0078125
        k(   22) = (   0.1427143   0.2471884   0.0000000), wk =   0.0078125
        k(   23) = (   0.1495102   0.2589593   0.0000000), wk =   0.0078125
        k(   24) = (   0.1563061   0.2707301   0.0000000), wk =   0.0078125
        k(   25) = (   0.1631020   0.2825010   0.0000000), wk =   0.0078125
        k(   26) = (   0.1698980   0.2942719   0.0000000), wk =   0.0078125
        k(   27) = (   0.1766939   0.3060428   0.0000000), wk =   0.0078125
        k(   28) = (   0.1834898   0.3178136   0.0000000), wk =   0.0078125
        k(   29) = (   0.1902857   0.3295845   0.0000000), wk =   0.0078125
        k(   30) = (   0.1970816   0.3413554   0.0000000), wk =   0.0078125
        k(   31) = (   0.2038776   0.3531263   0.0000000), wk =   0.0078125
        k(   32) = (   0.2106735   0.3648972   0.0000000), wk =   0.0078125
        k(   33) = (   0.2174694   0.3766680   0.0000000), wk =   0.0078125
        k(   34) = (   0.2242653   0.3884389   0.0000000), wk =   0.0078125
        k(   35) = (   0.2310612   0.4002098   0.0000000), wk =   0.0078125
        k(   36) = (   0.2378571   0.4119807   0.0000000), wk =   0.0078125
        k(   37) = (   0.2446531   0.4237515   0.0000000), wk =   0.0078125
        k(   38) = (   0.2514490   0.4355224   0.0000000), wk =   0.0078125
        k(   39) = (   0.2582449   0.4472933   0.0000000), wk =   0.0078125
        k(   40) = (   0.2650408   0.4590642   0.0000000), wk =   0.0078125
        k(   41) = (   0.2718367   0.4708350   0.0000000), wk =   0.0078125
        k(   42) = (   0.2786327   0.4826059   0.0000000), wk =   0.0078125
        k(   43) = (   0.2854286   0.4943768   0.0000000), wk =   0.0078125
        k(   44) = (   0.2922245   0.5061477   0.0000000), wk =   0.0078125
        k(   45) = (   0.2990204   0.5179185   0.0000000), wk =   0.0078125
        k(   46) = (   0.3058163   0.5296894   0.0000000), wk =   0.0078125
        k(   47) = (   0.3126122   0.5414603   0.0000000), wk =   0.0078125
        k(   48) = (   0.3194082   0.5532312   0.0000000), wk =   0.0078125
        k(   49) = (   0.3262041   0.5650020   0.0000000), wk =   0.0078125
        k(   50) = (   0.3330000   0.5767729   0.0000000), wk =   0.0078125
        k(   51) = (   0.3387586   0.5668385   0.0000000), wk =   0.0078125
        k(   52) = (   0.3445172   0.5569041   0.0000000), wk =   0.0078125
        k(   53) = (   0.3502759   0.5469697   0.0000000), wk =   0.0078125
        k(   54) = (   0.3560345   0.5370353   0.0000000), wk =   0.0078125
        k(   55) = (   0.3617931   0.5271009   0.0000000), wk =   0.0078125
        k(   56) = (   0.3675517   0.5171665   0.0000000), wk =   0.0078125
        k(   57) = (   0.3733103   0.5072321   0.0000000), wk =   0.0078125
        k(   58) = (   0.3790690   0.4972977   0.0000000), wk =   0.0078125
        k(   59) = (   0.3848276   0.4873633   0.0000000), wk =   0.0078125
        k(   60) = (   0.3905862   0.4774289   0.0000000), wk =   0.0078125
        k(   61) = (   0.3963448   0.4674944   0.0000000), wk =   0.0078125
        k(   62) = (   0.4021034   0.4575600   0.0000000), wk =   0.0078125
        k(   63) = (   0.4078621   0.4476256   0.0000000), wk =   0.0078125
        k(   64) = (   0.4136207   0.4376912   0.0000000), wk =   0.0078125
        k(   65) = (   0.4193793   0.4277568   0.0000000), wk =   0.0078125
        k(   66) = (   0.4251379   0.4178224   0.0000000), wk =   0.0078125
        k(   67) = (   0.4308966   0.4078880   0.0000000), wk =   0.0078125
        k(   68) = (   0.4366552   0.3979536   0.0000000), wk =   0.0078125
        k(   69) = (   0.4424138   0.3880192   0.0000000), wk =   0.0078125
        k(   70) = (   0.4481724   0.3780848   0.0000000), wk =   0.0078125
        k(   71) = (   0.4539310   0.3681504   0.0000000), wk =   0.0078125
        k(   72) = (   0.4596897   0.3582160   0.0000000), wk =   0.0078125
        k(   73) = (   0.4654483   0.3482816   0.0000000), wk =   0.0078125
        k(   74) = (   0.4712069   0.3383472   0.0000000), wk =   0.0078125
        k(   75) = (   0.4769655   0.3284128   0.0000000), wk =   0.0078125
        k(   76) = (   0.4827241   0.3184784   0.0000000), wk =   0.0078125
        k(   77) = (   0.4884828   0.3085439   0.0000000), wk =   0.0078125
        k(   78) = (   0.4942414   0.2986095   0.0000000), wk =   0.0078125
        k(   79) = (   0.5000000   0.2886751   0.0000000), wk =   0.0078125
        k(   80) = (   0.4897959   0.2827838   0.0000000), wk =   0.0078125
        k(   81) = (   0.4795918   0.2768925   0.0000000), wk =   0.0078125
        k(   82) = (   0.4693878   0.2710011   0.0000000), wk =   0.0078125
        k(   83) = (   0.4591837   0.2651098   0.0000000), wk =   0.0078125
        k(   84) = (   0.4489796   0.2592185   0.0000000), wk =   0.0078125
        k(   85) = (   0.4387755   0.2533272   0.0000000), wk =   0.0078125
        k(   86) = (   0.4285714   0.2474358   0.0000000), wk =   0.0078125
        k(   87) = (   0.4183673   0.2415445   0.0000000), wk =   0.0078125
        k(   88) = (   0.4081633   0.2356532   0.0000000), wk =   0.0078125
        k(   89) = (   0.3979592   0.2297618   0.0000000), wk =   0.0078125
        k(   90) = (   0.3877551   0.2238705   0.0000000), wk =   0.0078125
        k(   91) = (   0.3775510   0.2179792   0.0000000), wk =   0.0078125
        k(   92) = (   0.3673469   0.2120879   0.0000000), wk =   0.0078125
        k(   93) = (   0.3571429   0.2061965   0.0000000), wk =   0.0078125
        k(   94) = (   0.3469388   0.2003052   0.0000000), wk =   0.0078125
        k(   95) = (   0.3367347   0.1944139   0.0000000), wk =   0.0078125
        k(   96) = (   0.3265306   0.1885225   0.0000000), wk =   0.0078125
        k(   97) = (   0.3163265   0.1826312   0.0000000), wk =   0.0078125
        k(   98) = (   0.3061224   0.1767399   0.0000000), wk =   0.0078125
        k(   99) = (   0.2959184   0.1708485   0.0000000), wk =   0.0078125
        k(  100) = (   0.2857143   0.1649572   0.0000000), wk =   0.0078125
        k(  101) = (   0.2755102   0.1590659   0.0000000), wk =   0.0078125
        k(  102) = (   0.2653061   0.1531746   0.0000000), wk =   0.0078125
        k(  103) = (   0.2551020   0.1472832   0.0000000), wk =   0.0078125
        k(  104) = (   0.2448980   0.1413919   0.0000000), wk =   0.0078125
        k(  105) = (   0.2346939   0.1355006   0.0000000), wk =   0.0078125
        k(  106) = (   0.2244898   0.1296092   0.0000000), wk =   0.0078125
        k(  107) = (   0.2142857   0.1237179   0.0000000), wk =   0.0078125
        k(  108) = (   0.2040816   0.1178266   0.0000000), wk =   0.0078125
        k(  109) = (   0.1938776   0.1119353   0.0000000), wk =   0.0078125
        k(  110) = (   0.1836735   0.1060439   0.0000000), wk =   0.0078125
        k(  111) = (   0.1734694   0.1001526   0.0000000), wk =   0.0078125
        k(  112) = (   0.1632653   0.0942613   0.0000000), wk =   0.0078125
        k(  113) = (   0.1530612   0.0883699   0.0000000), wk =   0.0078125
        k(  114) = (   0.1428571   0.0824786   0.0000000), wk =   0.0078125
        k(  115) = (   0.1326531   0.0765873   0.0000000), wk =   0.0078125
        k(  116) = (   0.1224490   0.0706960   0.0000000), wk =   0.0078125
        k(  117) = (   0.1122449   0.0648046   0.0000000), wk =   0.0078125
        k(  118) = (   0.1020408   0.0589133   0.0000000), wk =   0.0078125
        k(  119) = (   0.0918367   0.0530220   0.0000000), wk =   0.0078125
        k(  120) = (   0.0816327   0.0471306   0.0000000), wk =   0.0078125
        k(  121) = (   0.0714286   0.0412393   0.0000000), wk =   0.0078125
        k(  122) = (   0.0612245   0.0353480   0.0000000), wk =   0.0078125
        k(  123) = (   0.0510204   0.0294566   0.0000000), wk =   0.0078125
        k(  124) = (   0.0408163   0.0235653   0.0000000), wk =   0.0078125
        k(  125) = (   0.0306122   0.0176740   0.0000000), wk =   0.0078125
        k(  126) = (   0.0204082   0.0117827   0.0000000), wk =   0.0078125
        k(  127) = (   0.0102041   0.0058913   0.0000000), wk =   0.0078125
        k(  128) = (   0.0000000   0.0000000   0.0000000), wk =   0.0078125

                       cryst. coord.
        k(    1) = (   0.0000000   0.0000000   0.0000000), wk =   0.0078125
        k(    2) = (   0.0067959   0.0067959   0.0000000), wk =   0.0078125
        k(    3) = (   0.0135918   0.0135918   0.0000000), wk =   0.0078125
        k(    4) = (   0.0203878   0.0203878   0.0000000), wk =   0.0078125
        k(    5) = (   0.0271837   0.0271837   0.0000000), wk =   0.0078125
        k(    6) = (   0.0339796   0.0339796   0.0000000), wk =   0.0078125
        k(    7) = (   0.0407755   0.0407755   0.0000000), wk =   0.0078125
        k(    8) = (   0.0475714   0.0475714   0.0000000), wk =   0.0078125
        k(    9) = (   0.0543673   0.0543673   0.0000000), wk =   0.0078125
        k(   10) = (   0.0611633   0.0611633   0.0000000), wk =   0.0078125
        k(   11) = (   0.0679592   0.0679592   0.0000000), wk =   0.0078125
        k(   12) = (   0.0747551   0.0747551   0.0000000), wk =   0.0078125
        k(   13) = (   0.0815510   0.0815510   0.0000000), wk =   0.0078125
        k(   14) = (   0.0883469   0.0883469   0.0000000), wk =   0.0078125
        k(   15) = (   0.0951429   0.0951429   0.0000000), wk =   0.0078125
        k(   16) = (   0.1019388   0.1019388   0.0000000), wk =   0.0078125
        k(   17) = (   0.1087347   0.1087347   0.0000000), wk =   0.0078125
        k(   18) = (   0.1155306   0.1155306   0.0000000), wk =   0.0078125
        k(   19) = (   0.1223265   0.1223265   0.0000000), wk =   0.0078125
        k(   20) = (   0.1291224   0.1291224   0.0000000), wk =   0.0078125
        k(   21) = (   0.1359184   0.1359184   0.0000000), wk =   0.0078125
        k(   22) = (   0.1427143   0.1427143   0.0000000), wk =   0.0078125
        k(   23) = (   0.1495102   0.1495102   0.0000000), wk =   0.0078125
        k(   24) = (   0.1563061   0.1563061   0.0000000), wk =   0.0078125
        k(   25) = (   0.1631020   0.1631020   0.0000000), wk =   0.0078125
        k(   26) = (   0.1698980   0.1698980   0.0000000), wk =   0.0078125
        k(   27) = (   0.1766939   0.1766939   0.0000000), wk =   0.0078125
        k(   28) = (   0.1834898   0.1834898   0.0000000), wk =   0.0078125
        k(   29) = (   0.1902857   0.1902857   0.0000000), wk =   0.0078125
        k(   30) = (   0.1970816   0.1970816   0.0000000), wk =   0.0078125
        k(   31) = (   0.2038776   0.2038776   0.0000000), wk =   0.0078125
        k(   32) = (   0.2106735   0.2106735   0.0000000), wk =   0.0078125
        k(   33) = (   0.2174694   0.2174694   0.0000000), wk =   0.0078125
        k(   34) = (   0.2242653   0.2242653   0.0000000), wk =   0.0078125
        k(   35) = (   0.2310612   0.2310612   0.0000000), wk =   0.0078125
        k(   36) = (   0.2378571   0.2378571   0.0000000), wk =   0.0078125
        k(   37) = (   0.2446531   0.2446531   0.0000000), wk =   0.0078125
        k(   38) = (   0.2514490   0.2514490   0.0000000), wk =   0.0078125
        k(   39) = (   0.2582449   0.2582449   0.0000000), wk =   0.0078125
        k(   40) = (   0.2650408   0.2650408   0.0000000), wk =   0.0078125
        k(   41) = (   0.2718367   0.2718367   0.0000000), wk =   0.0078125
        k(   42) = (   0.2786327   0.2786327   0.0000000), wk =   0.0078125
        k(   43) = (   0.2854286   0.2854286   0.0000000), wk =   0.0078125
        k(   44) = (   0.2922245   0.2922245   0.0000000), wk =   0.0078125
        k(   45) = (   0.2990204   0.2990204   0.0000000), wk =   0.0078125
        k(   46) = (   0.3058163   0.3058163   0.0000000), wk =   0.0078125
        k(   47) = (   0.3126122   0.3126122   0.0000000), wk =   0.0078125
        k(   48) = (   0.3194082   0.3194082   0.0000000), wk =   0.0078125
        k(   49) = (   0.3262041   0.3262041   0.0000000), wk =   0.0078125
        k(   50) = (   0.3330000   0.3330000   0.0000000), wk =   0.0078125
        k(   51) = (   0.3387586   0.3215172   0.0000000), wk =   0.0078125
        k(   52) = (   0.3445172   0.3100345   0.0000000), wk =   0.0078125
        k(   53) = (   0.3502759   0.2985517   0.0000000), wk =   0.0078125
        k(   54) = (   0.3560345   0.2870690   0.0000000), wk =   0.0078125
        k(   55) = (   0.3617931   0.2755862   0.0000000), wk =   0.0078125
        k(   56) = (   0.3675517   0.2641034   0.0000000), wk =   0.0078125
        k(   57) = (   0.3733103   0.2526207   0.0000000), wk =   0.0078125
        k(   58) = (   0.3790690   0.2411379   0.0000000), wk =   0.0078125
        k(   59) = (   0.3848276   0.2296552   0.0000000), wk =   0.0078125
        k(   60) = (   0.3905862   0.2181724   0.0000000), wk =   0.0078125
        k(   61) = (   0.3963448   0.2066897   0.0000000), wk =   0.0078125
        k(   62) = (   0.4021034   0.1952069   0.0000000), wk =   0.0078125
        k(   63) = (   0.4078621   0.1837241   0.0000000), wk =   0.0078125
        k(   64) = (   0.4136207   0.1722414   0.0000000), wk =   0.0078125
        k(   65) = (   0.4193793   0.1607586   0.0000000), wk =   0.0078125
        k(   66) = (   0.4251379   0.1492759   0.0000000), wk =   0.0078125
        k(   67) = (   0.4308966   0.1377931   0.0000000), wk =   0.0078125
        k(   68) = (   0.4366552   0.1263103   0.0000000), wk =   0.0078125
        k(   69) = (   0.4424138   0.1148276   0.0000000), wk =   0.0078125
        k(   70) = (   0.4481724   0.1033448   0.0000000), wk =   0.0078125
        k(   71) = (   0.4539310   0.0918621   0.0000000), wk =   0.0078125
        k(   72) = (   0.4596897   0.0803793   0.0000000), wk =   0.0078125
        k(   73) = (   0.4654483   0.0688966   0.0000000), wk =   0.0078125
        k(   74) = (   0.4712069   0.0574138   0.0000000), wk =   0.0078125
        k(   75) = (   0.4769655   0.0459310   0.0000000), wk =   0.0078125
        k(   76) = (   0.4827241   0.0344483   0.0000000), wk =   0.0078125
        k(   77) = (   0.4884828   0.0229655   0.0000000), wk =   0.0078125
        k(   78) = (   0.4942414   0.0114828   0.0000000), wk =   0.0078125
        k(   79) = (   0.5000000   0.0000000   0.0000000), wk =   0.0078125
        k(   80) = (   0.4897959  -0.0000000   0.0000000), wk =   0.0078125
        k(   81) = (   0.4795918   0.0000000   0.0000000), wk =   0.0078125
        k(   82) = (   0.4693878   0.0000000   0.0000000), wk =   0.0078125
        k(   83) = (   0.4591837   0.0000000   0.0000000), wk =   0.0078125
        k(   84) = (   0.4489796   0.0000000   0.0000000), wk =   0.0078125
        k(   85) = (   0.4387755   0.0000000   0.0000000), wk =   0.0078125
        k(   86) = (   0.4285714   0.0000000   0.0000000), wk =   0.0078125
        k(   87) = (   0.4183673   0.0000000   0.0000000), wk =   0.0078125
        k(   88) = (   0.4081633   0.0000000   0.0000000), wk =   0.0078125
        k(   89) = (   0.3979592   0.0000000   0.0000000), wk =   0.0078125
        k(   90) = (   0.3877551   0.0000000   0.0000000), wk =   0.0078125
        k(   91) = (   0.3775510  -0.0000000   0.0000000), wk =   0.0078125
        k(   92) = (   0.3673469  -0.0000000   0.0000000), wk =   0.0078125
        k(   93) = (   0.3571429   0.0000000   0.0000000), wk =   0.0078125
        k(   94) = (   0.3469388   0.0000000   0.0000000), wk =   0.0078125
        k(   95) = (   0.3367347   0.0000000   0.0000000), wk =   0.0078125
        k(   96) = (   0.3265306   0.0000000   0.0000000), wk =   0.0078125
        k(   97) = (   0.3163265   0.0000000   0.0000000), wk =   0.0078125
        k(   98) = (   0.3061224   0.0000000   0.0000000), wk =   0.0078125
        k(   99) = (   0.2959184   0.0000000   0.0000000), wk =   0.0078125
        k(  100) = (   0.2857143   0.0000000   0.0000000), wk =   0.0078125
        k(  101) = (   0.2755102  -0.0000000   0.0000000), wk =   0.0078125
        k(  102) = (   0.2653061  -0.0000000   0.0000000), wk =   0.0078125
        k(  103) = (   0.2551020   0.0000000   0.0000000), wk =   0.0078125
        k(  104) = (   0.2448980  -0.0000000   0.0000000), wk =   0.0078125
        k(  105) = (   0.2346939  -0.0000000   0.0000000), wk =   0.0078125
        k(  106) = (   0.2244898   0.0000000   0.0000000), wk =   0.0078125
        k(  107) = (   0.2142857   0.0000000   0.0000000), wk =   0.0078125
        k(  108) = (   0.2040816   0.0000000   0.0000000), wk =   0.0078125
        k(  109) = (   0.1938776   0.0000000   0.0000000), wk =   0.0078125
        k(  110) = (   0.1836735  -0.0000000   0.0000000), wk =   0.0078125
        k(  111) = (   0.1734694   0.0000000   0.0000000), wk =   0.0078125
        k(  112) = (   0.1632653   0.0000000   0.0000000), wk =   0.0078125
        k(  113) = (   0.1530612   0.0000000   0.0000000), wk =   0.0078125
        k(  114) = (   0.1428571   0.0000000   0.0000000), wk =   0.0078125
        k(  115) = (   0.1326531  -0.0000000   0.0000000), wk =   0.0078125
        k(  116) = (   0.1224490  -0.0000000   0.0000000), wk =   0.0078125
        k(  117) = (   0.1122449   0.0000000   0.0000000), wk =   0.0078125
        k(  118) = (   0.1020408   0.0000000   0.0000000), wk =   0.0078125
        k(  119) = (   0.0918367   0.0000000   0.0000000), wk =   0.0078125
        k(  120) = (   0.0816327   0.0000000   0.0000000), wk =   0.0078125
        k(  121) = (   0.0714286   0.0000000   0.0000000), wk =   0.0078125
        k(  122) = (   0.0612245  -0.0000000   0.0000000), wk =   0.0078125
        k(  123) = (   0.0510204   0.0000000   0.0000000), wk =   0.0078125
        k(  124) = (   0.0408163   0.0000000   0.0000000), wk =   0.0078125
        k(  125) = (   0.0306122  -0.0000000   0.0000000), wk =   0.0078125
        k(  126) = (   0.0204082   0.0000000   0.0000000), wk =   0.0078125
        k(  127) = (   0.0102041   0.0000000   0.0000000), wk =   0.0078125
        k(  128) = (   0.0000000   0.0000000   0.0000000), wk =   0.0078125

     Dense  grid:   120979 G-vectors     FFT dimensions: (  40,  40, 192)

     Dynamical RAM for                 wfc:       0.32 MB

     Dynamical RAM for     wfc (w. buffer):      20.83 MB

     Dynamical RAM for           str. fact:       0.05 MB

     Dynamical RAM for           local pot:       0.00 MB

     Dynamical RAM for          nlocal pot:       0.33 MB

     Dynamical RAM for                qrad:       8.41 MB

     Dynamical RAM for          rho,v,vnew:       0.75 MB

     Dynamical RAM for           G-vectors:       0.11 MB

     Dynamical RAM for          h,s,v(r/c):       0.01 MB

     Dynamical RAM for          <psi|beta>:       0.16 MB

     Dynamical RAM for                 psi:       0.64 MB

     Dynamical RAM for                hpsi:       0.64 MB

     Dynamical RAM for      wfcinit/wfcrot:       0.54 MB

     Estimated static dynamical RAM per process >      30.85 MB

     Estimated max dynamical RAM per process >      32.29 MB

     Estimated total dynamical RAM >       4.54 GB

     The potential is recalculated from file :
     ./MoS2.save/charge-density

     Starting wfcs are random

     Band Structure Calculation
     Davidson diagonalization with overlap

     Computing kpt #:     1  of    64 on this pool
     total cpu time spent up to now is        2.0 secs

     Computing kpt #:     2  of    64 on this pool
     total cpu time spent up to now is        3.2 secs

     Computing kpt #:     3  of    64 on this pool
     total cpu time spent up to now is        4.3 secs

     Computing kpt #:     4  of    64 on this pool
     total cpu time spent up to now is        5.5 secs

     Computing kpt #:     5  of    64 on this pool
     total cpu time spent up to now is        6.7 secs

     Computing kpt #:     6  of    64 on this pool
     total cpu time spent up to now is        7.9 secs

     Computing kpt #:     7  of    64 on this pool
     total cpu time spent up to now is        9.0 secs

     Computing kpt #:     8  of    64 on this pool
     total cpu time spent up to now is       10.2 secs

     Computing kpt #:     9  of    64 on this pool
     total cpu time spent up to now is       11.4 secs

     Computing kpt #:    10  of    64 on this pool
     total cpu time spent up to now is       12.5 secs

     Computing kpt #:    11  of    64 on this pool
     total cpu time spent up to now is       13.7 secs

     Computing kpt #:    12  of    64 on this pool
     total cpu time spent up to now is       15.1 secs

     Computing kpt #:    13  of    64 on this pool
     c_bands:  2 eigenvalues not converged
     total cpu time spent up to now is       16.6 secs

     Computing kpt #:    14  of    64 on this pool
     total cpu time spent up to now is       17.9 secs

     Computing kpt #:    15  of    64 on this pool
     total cpu time spent up to now is       19.1 secs

     Computing kpt #:    16  of    64 on this pool
     total cpu time spent up to now is       20.4 secs

     Computing kpt #:    17  of    64 on this pool
     total cpu time spent up to now is       21.7 secs

     Computing kpt #:    18  of    64 on this pool
     total cpu time spent up to now is       23.0 secs

     Computing kpt #:    19  of    64 on this pool
     c_bands:  2 eigenvalues not converged
     total cpu time spent up to now is       24.4 secs

     Computing kpt #:    20  of    64 on this pool
     c_bands:  2 eigenvalues not converged
     total cpu time spent up to now is       25.9 secs

     Computing kpt #:    21  of    64 on this pool
     total cpu time spent up to now is       27.2 secs

     Computing kpt #:    22  of    64 on this pool
     total cpu time spent up to now is       28.4 secs

     Computing kpt #:    23  of    64 on this pool
     total cpu time spent up to now is       29.5 secs

     Computing kpt #:    24  of    64 on this pool
     total cpu time spent up to now is       30.7 secs

     Computing kpt #:    25  of    64 on this pool
     total cpu time spent up to now is       32.0 secs

     Computing kpt #:    26  of    64 on this pool
     total cpu time spent up to now is       33.3 secs

     Computing kpt #:    27  of    64 on this pool
     c_bands:  2 eigenvalues not converged
     total cpu time spent up to now is       34.8 secs

     Computing kpt #:    28  of    64 on this pool
     total cpu time spent up to now is       36.0 secs

     Computing kpt #:    29  of    64 on this pool
     total cpu time spent up to now is       37.2 secs

     Computing kpt #:    30  of    64 on this pool
     total cpu time spent up to now is       38.4 secs

     Computing kpt #:    31  of    64 on this pool
     total cpu time spent up to now is       39.6 secs

     Computing kpt #:    32  of    64 on this pool
     total cpu time spent up to now is       40.8 secs

     Computing kpt #:    33  of    64 on this pool
     total cpu time spent up to now is       42.0 secs

     Computing kpt #:    34  of    64 on this pool
     total cpu time spent up to now is       43.3 secs

     Computing kpt #:    35  of    64 on this pool
     total cpu time spent up to now is       44.7 secs

     Computing kpt #:    36  of    64 on this pool
     total cpu time spent up to now is       46.0 secs

     Computing kpt #:    37  of    64 on this pool
     total cpu time spent up to now is       47.4 secs

     Computing kpt #:    38  of    64 on this pool
     total cpu time spent up to now is       48.6 secs

     Computing kpt #:    39  of    64 on this pool
     total cpu time spent up to now is       49.8 secs

     Computing kpt #:    40  of    64 on this pool
     total cpu time spent up to now is       51.1 secs

     Computing kpt #:    41  of    64 on this pool
     total cpu time spent up to now is       52.3 secs

     Computing kpt #:    42  of    64 on this pool
     total cpu time spent up to now is       53.5 secs

     Computing kpt #:    43  of    64 on this pool
     total cpu time spent up to now is       54.9 secs

     Computing kpt #:    44  of    64 on this pool
     total cpu time spent up to now is       56.3 secs

     Computing kpt #:    45  of    64 on this pool
     total cpu time spent up to now is       57.8 secs

     Computing kpt #:    46  of    64 on this pool
     total cpu time spent up to now is       59.1 secs

     Computing kpt #:    47  of    64 on this pool
     c_bands:  2 eigenvalues not converged
     total cpu time spent up to now is       60.6 secs

     Computing kpt #:    48  of    64 on this pool
     total cpu time spent up to now is       62.1 secs

     Computing kpt #:    49  of    64 on this pool
     total cpu time spent up to now is       63.4 secs

     Computing kpt #:    50  of    64 on this pool
     total cpu time spent up to now is       64.8 secs

     Computing kpt #:    51  of    64 on this pool
     total cpu time spent up to now is       66.2 secs

     Computing kpt #:    52  of    64 on this pool
     total cpu time spent up to now is       67.7 secs

     Computing kpt #:    53  of    64 on this pool
     c_bands:  1 eigenvalues not converged
     total cpu time spent up to now is       69.2 secs

     Computing kpt #:    54  of    64 on this pool
     total cpu time spent up to now is       70.5 secs

     Computing kpt #:    55  of    64 on this pool
     total cpu time spent up to now is       71.7 secs

     Computing kpt #:    56  of    64 on this pool
     total cpu time spent up to now is       73.0 secs

     Computing kpt #:    57  of    64 on this pool
     total cpu time spent up to now is       74.3 secs

     Computing kpt #:    58  of    64 on this pool
     total cpu time spent up to now is       75.6 secs

     Computing kpt #:    59  of    64 on this pool
     total cpu time spent up to now is       76.8 secs

     Computing kpt #:    60  of    64 on this pool
     total cpu time spent up to now is       78.0 secs

     Computing kpt #:    61  of    64 on this pool
     total cpu time spent up to now is       79.1 secs

     Computing kpt #:    62  of    64 on this pool
     total cpu time spent up to now is       80.3 secs

     Computing kpt #:    63  of    64 on this pool
     total cpu time spent up to now is       81.4 secs

     Computing kpt #:    64  of    64 on this pool
     total cpu time spent up to now is       82.6 secs

     ethr =  3.85E-12,  avg # of iterations = 83.9

     total cpu time spent up to now is       82.6 secs

     End of band structure calculation

          k = 0.0000 0.0000 0.0000 ( 15211 PWs)   bands (ev):

   -60.2208 -60.2208 -35.9497 -35.9497 -33.5183 -33.5183 -33.3691 -33.3691
   -13.4461 -13.4461 -12.1465 -12.1465  -4.9652  -4.9652  -2.0082  -2.0082
    -1.9438  -1.9438  -1.1371  -1.1371  -0.9138  -0.9138  -0.8294  -0.8294
     0.6307   0.6307   3.3439   3.3439   3.4230   3.4230   3.6357   3.6357
     3.6360   3.6360   5.9507   5.9507   6.4714   6.4714   6.8735   6.8735
     7.9963   7.9963   9.6294   9.6294  10.1223  10.1223  11.3427  11.3427
    11.4189  11.4189

          k = 0.0068 0.0118 0.0000 ( 15201 PWs)   bands (ev):

   -60.2208 -60.2208 -35.9499 -35.9499 -33.5183 -33.5183 -33.3695 -33.3695
   -13.4440 -13.4440 -12.1456 -12.1456  -4.9628  -4.9628  -2.0098  -2.0097
    -1.9451  -1.9450  -1.1606  -1.1605  -0.9054  -0.9049  -0.8212  -0.8208
     0.6298   0.6298   3.3438   3.3441   3.4229   3.4232   3.6283   3.6305
     3.6323   3.6346   5.9548   5.9548   6.4741   6.4741   6.8828   6.8828
     7.9994   7.9994   9.6394   9.6394  10.1247  10.1247  11.3382  11.3384
    11.4159  11.4160

          k = 0.0136 0.0235 0.0000 ( 15221 PWs)   bands (ev):

   -60.2206 -60.2206 -35.9503 -35.9503 -33.5185 -33.5185 -33.3705 -33.3705
   -13.4379 -13.4379 -12.1431 -12.1431  -4.9556  -4.9556  -2.0169  -2.0159
    -1.9470  -1.9459  -1.2166  -1.2164  -0.9005  -0.8981  -0.7911  -0.7888
     0.6272   0.6272   3.3409   3.3438   3.4239   3.4263   3.6082   3.6129
     3.6241   3.6285   5.9669   5.9670   6.4821   6.4821   6.9106   6.9107
     8.0087   8.0087   9.6691   9.6691  10.1320  10.1320  11.3145  11.3155
    11.4206  11.4212

          k = 0.0204 0.0353 0.0000 ( 15229 PWs)   bands (ev):

   -60.2204 -60.2204 -35.9510 -35.9510 -33.5188 -33.5188 -33.3722 -33.3722
   -13.4276 -13.4276 -12.1388 -12.1388  -4.9437  -4.9437  -2.0341  -2.0313
    -1.9448  -1.9420  -1.2875  -1.2873  -0.9114  -0.9071  -0.7431  -0.7388
     0.6225   0.6226   3.3311   3.3388   3.4302   3.4364   3.5769   3.5842
     3.6114   3.6177   5.9866   5.9867   6.4956   6.4956   6.9565   6.9566
     8.0243   8.0243   9.7176   9.7177  10.1443  10.1443  11.2673  11.2694
    11.4453  11.4464

          k = 0.0272 0.0471 0.0000 ( 15225 PWs)   bands (ev):

   -60.2200 -60.2200 -35.9519 -35.9519 -33.5192 -33.5192 -33.3746 -33.3745
   -13.4133 -13.4132 -12.1329 -12.1329  -4.9271  -4.9270  -2.0628  -2.0583
    -1.9358  -1.9312  -1.3655  -1.3654  -0.9336  -0.9278  -0.6891  -0.6829
     0.6158   0.6158   3.3129   3.3259   3.4454   3.4529   3.5361   3.5479
     3.5949   3.6023   6.0131   6.0132   6.5143   6.5143   7.0197   7.0199
     8.0462   8.0463   9.7836   9.7837  10.1617  10.1617  11.2059  11.2092
    11.4862  11.4874

          k = 0.0340 0.0589 0.0000 ( 15225 PWs)   bands (ev):

   -60.2196 -60.2196 -35.9532 -35.9531 -33.5197 -33.5197 -33.3777 -33.3775
   -13.3950 -13.3949 -12.1254 -12.1254  -4.9061  -4.9059  -2.1020  -2.0959
    -1.9205  -1.9144  -1.4473  -1.4470  -0.9646  -0.9576  -0.6352  -0.6270
     0.6066   0.6067   3.2882   3.3055   3.4594   3.4622   3.4955   3.5195
     3.5767   3.5826   6.0456   6.0458   6.5383   6.5383   7.0992   7.0997
     8.0745   8.0746   9.8650   9.8651  10.1846  10.1846  11.1369  11.1415
    11.5398  11.5405

          k = 0.0408 0.0706 0.0000 ( 15217 PWs)   bands (ev):

   -60.2190 -60.2190 -35.9547 -35.9546 -33.5204 -33.5203 -33.3813 -33.3810
   -13.3727 -13.3725 -12.1162 -12.1162  -4.8807  -4.8804  -2.1500  -2.1426
    -1.9000  -1.8926  -1.5314  -1.5303  -1.0034  -0.9956  -0.5838  -0.5734
     0.5946   0.5949   3.2591   3.2796   3.4219   3.4237   3.5117   3.5202
     3.5597   3.5702   6.0834   6.0838   6.5675   6.5675   7.1936   7.1945
     8.1093   8.1095   9.9586   9.9588  10.2138  10.2138  11.0637  11.0698
    11.6033  11.6036

          k = 0.0476 0.0824 0.0000 ( 15213 PWs)   bands (ev):

   -60.2184 -60.2184 -35.9565 -35.9563 -33.5212 -33.5210 -33.3856 -33.3851
   -13.3466 -13.3462 -12.1054 -12.1054  -4.8512  -4.8507  -2.2055  -2.1970
    -1.8749  -1.8670  -1.6166  -1.6139  -1.0498  -1.0415  -0.5360  -0.5235
     0.5795   0.5801   3.2278   3.2502   3.3645   3.3653   3.5025   3.5241
     3.5604   3.6002   6.1261   6.1266   6.6018   6.6018   7.3013   7.3026
     8.1511   8.1515  10.0593  10.0595  10.2520  10.2521  10.9883  10.9959
    11.6734  11.6754

          k = 0.0544 0.0942 0.0000 ( 15217 PWs)   bands (ev):

   -60.2177 -60.2177 -35.9585 -35.9582 -33.5222 -33.5219 -33.3904 -33.3897
   -13.3167 -13.3161 -12.0930 -12.0930  -4.8178  -4.8171  -2.2674  -2.2580
    -1.8459  -1.8394  -1.7021  -1.6956  -1.1037  -1.0952  -0.4925  -0.4777
     0.5609   0.5618   3.1960   3.2177   3.3014   3.3052   3.4717   3.4949
     3.6069   3.6488   6.1732   6.1739   6.6412   6.6412   7.4201   7.4219
     8.2005   8.2010  10.1567  10.1569  10.3066  10.3068  10.9122  10.9214
    11.7479  11.7526

          k = 0.0612 0.1059 0.0000 ( 15199 PWs)   bands (ev):

   -60.2169 -60.2169 -35.9608 -35.9604 -33.5234 -33.5230 -33.3957 -33.3947
   -13.2831 -13.2823 -12.0792 -12.0791  -4.7809  -4.7800  -2.3347  -2.3244
    -1.8244  -1.8140  -1.7867  -1.7606  -1.1650  -1.1566  -0.4536  -0.4364
     0.5381   0.5396   3.1649   3.1807   3.2361   3.2491   3.4359   3.4601
     3.6622   3.7057   6.2246   6.2254   6.6856   6.6856   7.5475   7.5498
     8.2583   8.2590  10.2350  10.2352  10.3892  10.3898  10.8366  10.8472
    11.8237  11.8320

          k = 0.0680 0.1177 0.0000 ( 15203 PWs)   bands (ev):

   -60.2160 -60.2160 -35.9634 -35.9627 -33.5247 -33.5242 -33.4015 -33.4001
   -13.2459 -13.2448 -12.0638 -12.0637  -4.7409  -4.7395  -2.4062  -2.3953
    -1.8795  -1.8724  -1.7769  -1.7512  -1.2334  -1.2257  -0.4194  -0.4000
     0.5110   0.5132   3.1350   3.1352   3.1714   3.2038   3.3972   3.4224
     3.7231   3.7684   6.2801   6.2811   6.7349   6.7349   7.6804   7.6833
     8.3262   8.3271  10.2931  10.2932  10.4960  10.4978  10.7628  10.7744
    11.8971  11.9097

          k = 0.0748 0.1295 0.0000 ( 15215 PWs)   bands (ev):

   -60.2150 -60.2150 -35.9661 -35.9653 -33.5263 -33.5257 -33.4076 -33.4058
   -13.2053 -13.2038 -12.0470 -12.0468  -4.6981  -4.6963  -2.4810  -2.4697
    -1.9578  -1.9556  -1.7383  -1.7144  -1.3087  -1.3020  -0.3899  -0.3683
     0.4790   0.4824   3.0812   3.0974   3.1190   3.1714   3.3567   3.3826
     3.7889   3.8359   6.3396   6.3409   6.7890   6.7890   7.8152   7.8186
     8.4060   8.4073  10.3421  10.3423  10.6037  10.6112  10.6976  10.7058
    11.9646  11.9816

          k = 0.0816 0.1413 0.0000 ( 15209 PWs)   bands (ev):

   -60.2140 -60.2140 -35.9692 -35.9681 -33.5281 -33.5273 -33.4141 -33.4117
   -13.1613 -13.1594 -12.0288 -12.0286  -4.6531  -4.6507  -2.5580  -2.5464
    -2.0375  -2.0372  -1.6973  -1.6723  -1.3905  -1.3852  -0.3653  -0.3416
     0.4420   0.4469   3.0250   3.0384   3.0940   3.1478   3.3154   3.3419
     3.8586   3.9071   6.4032   6.4047   6.8478   6.8479   7.9478   7.9515
     8.5004   8.5021  10.3879  10.3881  10.6040  10.6255  10.7331  10.7360
    11.9890  11.9974

          k = 0.0883 0.1530 0.0000 ( 15187 PWs)   bands (ev):

   -60.2129 -60.2129 -35.9724 -35.9710 -33.5302 -33.5293 -33.4207 -33.4178
   -13.1141 -13.1117 -12.0093 -12.0091  -4.6066  -4.6034  -2.6359  -2.6243
    -2.1177  -2.1154  -1.6549  -1.6275  -1.4780  -1.4747  -0.3454  -0.3198
     0.3999   0.4067   2.9703   2.9785   3.0773   3.1304   3.2746   3.3014
     3.9317   3.9812   6.4709   6.4725   6.9113   6.9114   8.0741   8.0781
     8.6117   8.6140  10.4315  10.4317  10.5381  10.5598  10.8255  10.8257
    11.8997  11.9101

          k = 0.0951 0.1648 0.0000 ( 15171 PWs)   bands (ev):

   -60.2117 -60.2117 -35.9758 -35.9741 -33.5326 -33.5315 -33.4276 -33.4241
   -13.0640 -13.0609 -11.9885 -11.9882  -4.5591  -4.5550  -2.7137  -2.7024
    -2.1961  -2.1918  -1.6155  -1.5846  -1.5665  -1.5664  -0.3301  -0.3028
     0.3529   0.3621   2.9186   2.9211   3.0662   3.1179   3.2355   3.2625
     4.0072   4.0576   6.5425   6.5444   6.9792   6.9794   8.1919   8.1960
     8.7408   8.7436  10.4697  10.4713  10.4727  10.4942  10.8903  10.8926
    11.8481  11.8606

          k = 0.1019 0.1766 0.0000 ( 15179 PWs)   bands (ev):

   -60.2105 -60.2105 -35.9794 -35.9774 -33.5352 -33.5340 -33.4345 -33.4303
   -13.0110 -13.0072 -11.9665 -11.9662  -4.5116  -4.5064  -2.7900  -2.7794
    -2.2726  -2.2663  -1.6736  -1.6713  -1.5617  -1.5326  -0.3195  -0.2906
     0.3012   0.3134   2.8666   2.8704   3.0605   3.1095   3.1995   3.2272
     4.0844   4.1354   6.6183   6.6204   7.0516   7.0518   8.3009   8.3051
     8.8860   8.8892  10.4035  10.4284  10.5061  10.5064  10.9215  10.9252
    11.8424  11.8567

          k = 0.1087 0.1883 0.0000 ( 15175 PWs)   bands (ev):

   -60.2093 -60.2093 -35.9832 -35.9808 -33.5382 -33.5369 -33.4413 -33.4365
   -12.9553 -12.9508 -11.9435 -11.9431  -4.4651  -4.4586  -2.8636  -2.8540
    -2.3474  -2.3387  -1.7754  -1.7737  -1.5189  -1.4854  -0.3133  -0.2830
     0.2455   0.2613   2.8148   2.8259   3.0600   3.1032   3.1682   3.1986
     4.1627   4.2140   6.6980   6.7005   7.1282   7.1284   8.4029   8.4072
     9.0437   9.0469  10.3379  10.3653  10.5285  10.5291  10.9251  10.9291
    11.8803  11.8956

          k = 0.1155 0.2001 0.0000 ( 15175 PWs)   bands (ev):

   -60.2080 -60.2080 -35.9871 -35.9843 -33.5415 -33.5402 -33.4481 -33.4426
   -12.8971 -12.8917 -11.9193 -11.9189  -4.4207  -4.4126  -2.9331  -2.9248
    -2.4207  -2.4094  -1.8825  -1.8772  -1.4767  -1.4393  -0.3115  -0.2801
     0.1868   0.2069   2.7657   2.7847   3.0639   3.0963   3.1432   3.1804
     4.2412   4.2924   6.7817   6.7845   7.2088   7.2091   8.5004   8.5048
     9.2090   9.2114  10.2741  10.3044  10.5320  10.5330  10.9192  10.9224
    11.9497  11.9652

          k = 0.1223 0.2119 0.0000 ( 15171 PWs)   bands (ev):

   -60.2066 -60.2066 -35.9912 -35.9879 -33.5451 -33.5439 -33.4546 -33.4486
   -12.8367 -12.8303 -11.8943 -11.8937  -4.3798  -4.3699  -2.9968  -2.9903
    -2.4932  -2.4789  -1.9908  -1.9817  -1.4373  -1.3956  -0.3141  -0.2816
     0.1262   0.1515   2.7193   2.7466   3.0703   3.0866   3.1271   3.1758
     4.3193   4.3701   6.8694   6.8726   7.2934   7.2938   8.5954   8.6000
     9.3759   9.3763  10.2134  10.2474  10.5111  10.5128  10.9212  10.9232
    12.0360  12.0506

          k = 0.1291 0.2236 0.0000 ( 15171 PWs)   bands (ev):

   -60.2053 -60.2053 -35.9954 -35.9915 -33.5491 -33.5481 -33.4609 -33.4543
   -12.7743 -12.7668 -11.8684 -11.8677  -4.3438  -4.3318  -3.0532  -3.0489
    -2.5659  -2.5481  -2.0984  -2.0851  -1.4023  -1.3559  -0.3209  -0.2876
     0.0655   0.0965   2.6759   2.7115   3.0749   3.0761   3.1243   3.1832
     4.3962   4.4462   6.9609   6.9645   7.3817   7.3822   8.6897   8.6945
     9.5321   9.5356  10.1607  10.1999  10.4684  10.4707  10.9379  10.9386
    12.0568  12.0593

          k = 0.1359 0.2354 0.0000 ( 15161 PWs)   bands (ev):

   -60.2039 -60.2039 -35.9997 -35.9953 -33.5534 -33.5528 -33.4668 -33.4598
   -12.7100 -12.7013 -11.8416 -11.8409  -4.3144  -4.3002  -3.1007  -3.0989
    -2.6403  -2.6187  -2.2030  -2.1850  -1.3736  -1.3221  -0.3320  -0.2979
     0.0063   0.0439   2.6360   2.6797   3.0681   3.0758   3.1364   3.1993
     4.4712   4.5202   7.0562   7.0603   7.4736   7.4742   8.7843   8.7894
     9.6603   9.6698  10.1306  10.1766  10.4126  10.4151  10.9660  10.9662
    12.0240  12.0294

          k = 0.1427 0.2472 0.0000 ( 15161 PWs)   bands (ev):

   -60.2025 -60.2025 -36.0041 -35.9990 -33.5580 -33.5580 -33.4724 -33.4651
   -12.6442 -12.6342 -11.8143 -11.8134  -4.2929  -4.2764  -3.1386  -3.1377
    -2.7181  -2.6927  -2.3013  -2.2788  -1.3531  -1.2962  -0.3471  -0.3125
    -0.0491  -0.0045   2.6006   2.6517   3.0644   3.0770   3.1585   3.2216
     4.5437   4.5913   7.1551   7.1597   7.5688   7.5695   8.8798   8.8851
     9.7293   9.7417  10.1568  10.2053  10.3522  10.3548  11.0004  11.0014
    11.9959  12.0033

          k = 0.1495 0.2590 0.0000 ( 15159 PWs)   bands (ev):

   -60.2011 -60.2011 -36.0085 -36.0028 -33.5636 -33.5628 -33.4775 -33.4701
   -12.5772 -12.5657 -11.7863 -11.7853  -4.2805  -4.2617  -3.1670  -3.1633
    -2.8013  -2.7729  -2.3900  -2.3637  -1.3428  -1.2803  -0.3663  -0.3313
    -0.0988  -0.0467   2.5706   2.6286   3.0655   3.0811   3.1870   3.2486
     4.6132   4.6590   7.2574   7.2627   7.6671   7.6679   8.9767   8.9821
     9.7250   9.7326  10.2535  10.2877  10.2941  10.3052  11.0383  11.0399
    11.9769  11.9853

          k = 0.1563 0.2707 0.0000 ( 15143 PWs)   bands (ev):

   -60.1997 -60.1997 -36.0129 -36.0065 -33.5696 -33.5678 -33.4822 -33.4748
   -12.5090 -12.4960 -11.7579 -11.7568  -4.2774  -4.2568  -3.1835  -3.1771
    -2.8911  -2.8611  -2.4663  -2.4376  -1.3441  -1.2766  -0.3892  -0.3543
    -0.1407  -0.0810   2.5472   2.6113   3.0710   3.0887   3.2199   3.2796
     4.6792   4.7228   7.3629   7.3689   7.7683   7.7693   9.0750   9.0803
     9.6726   9.6752  10.2371  10.2394  10.3903  10.4257  11.0780  11.0801
    11.9704  11.9785

          k = 0.1631 0.2825 0.0000 ( 15155 PWs)   bands (ev):

   -60.1983 -60.1983 -36.0174 -36.0103 -33.5758 -33.5729 -33.4866 -33.4793
   -12.4402 -12.4255 -11.7291 -11.7278  -4.2832  -4.2614  -3.1884  -3.1799
    -2.9879  -2.9576  -2.5291  -2.4996  -1.3583  -1.2865  -0.4158  -0.3815
    -0.1733  -0.1062   2.5314   2.6008   3.0801   3.0991   3.2563   3.3136
     4.7412   4.7822   7.4712   7.4782   7.8722   7.8733   9.1747   9.1791
     9.5961   9.5965  10.1898  10.1918  10.5314  10.5594  11.1187  11.1211
    11.9791  11.9846

          k = 0.1699 0.2943 0.0000 ( 15163 PWs)   bands (ev):

   -60.1969 -60.1969 -36.0218 -36.0140 -33.5824 -33.5781 -33.4906 -33.4836
   -12.3709 -12.3544 -11.7001 -11.6987  -4.2968  -4.2743  -3.1830  -3.1735
    -3.0904  -3.0607  -2.5792  -2.5500  -1.3857  -1.3108  -0.4456  -0.4125
    -0.1958  -0.1219   2.5242   2.5981   3.0920   3.1117   3.2955   3.3502
     4.7990   4.8369   7.5819   7.5900   7.9786   7.9798   9.2752   9.2764
     9.5062   9.5100  10.1509  10.1527  10.6650  10.6839  11.1606  11.1630
    12.0014  12.0052

          k = 0.1767 0.3060 0.0000 ( 15147 PWs)   bands (ev):

   -60.1956 -60.1956 -36.0262 -36.0176 -33.5890 -33.5832 -33.4943 -33.4877
   -12.3016 -12.2832 -11.6710 -11.6694  -4.3163  -4.2940  -3.1980  -3.1790
    -3.1683  -3.1487  -2.6181  -2.5900  -1.4258  -1.3491  -0.4788  -0.4473
    -0.2084  -0.1285   2.5262   2.6037   3.1059   3.1254   3.3369   3.3885
     4.8524   4.8867   7.6943   7.7038   8.0871   8.0884   9.3493   9.3719
     9.4146   9.4407  10.1219  10.1233  10.7816  10.7873  11.2045  11.2063
    11.9995  12.0245

          k = 0.1835 0.3178 0.0000 ( 15139 PWs)   bands (ev):

   -60.1942 -60.1942 -36.0306 -36.0211 -33.5957 -33.5883 -33.4978 -33.4917
   -12.2324 -12.2120 -11.6418 -11.6401  -4.3398  -4.3182  -3.3067  -3.2835
    -3.1488  -3.1347  -2.6474  -2.6206  -1.4774  -1.4003  -0.5151  -0.4856
    -0.2117  -0.1269   2.5379   2.6179   3.1210   3.1394   3.3798   3.4279
     4.9014   4.9315   7.8076   7.8189   8.1976   8.1989   9.2895   9.3080
     9.4802   9.4990  10.1034  10.1046  10.8579  10.8718  11.2511  11.2518
    11.8949  11.9064

          k = 0.1903 0.3296 0.0000 ( 15131 PWs)   bands (ev):

   -60.1929 -60.1929 -36.0348 -36.0246 -33.6024 -33.5932 -33.5011 -33.4956
   -12.1638 -12.1412 -11.6128 -11.6109  -4.3653  -4.3449  -3.4167  -3.3951
    -3.1248  -3.1109  -2.6686  -2.6430  -1.5390  -1.4625  -0.5546  -0.5272
    -0.2070  -0.1183   2.5592   2.6403   3.1370   3.1529   3.4235   3.4677
     4.9461   4.9716   7.9202   7.9338   8.3097   8.3110   9.1902   9.2088
     9.5791   9.5929  10.0961  10.0969  10.8852  10.9248  11.3002  11.3009
    11.7992  11.7993

          k = 0.1971 0.3414 0.0000 ( 15123 PWs)   bands (ev):

   -60.1917 -60.1917 -36.0390 -36.0279 -33.6090 -33.5980 -33.5042 -33.4993
   -12.0960 -12.0712 -11.5841 -11.5819  -4.3909  -4.3723  -3.5264  -3.5064
    -3.0989  -3.0851  -2.6826  -2.6580  -1.6089  -1.5338  -0.5971  -0.5719
    -0.1955  -0.1035   2.5895   2.6699   3.1537   3.1655   3.4673   3.5072
     4.9868   5.0070   8.0300   8.0466   8.4233   8.4245   9.0888   9.1120
     9.6744   9.6851  10.1003  10.1008  10.8668  10.9319  11.3523  11.3540
    11.7289  11.7492

          k = 0.2039 0.3531 0.0000 ( 15131 PWs)   bands (ev):

   -60.1904 -60.1904 -36.0431 -36.0311 -33.6154 -33.6025 -33.5071 -33.5030
   -12.0295 -12.0024 -11.5557 -11.5534  -4.4151  -4.3987  -3.6345  -3.6162
    -3.0728  -3.0594  -2.6901  -2.6664  -1.6856  -1.6124  -0.6426  -0.6194
    -0.1782  -0.0836   2.6275   2.7046   3.1717   3.1769   3.5105   3.5457
     5.0239   5.0383   8.1331   8.1535   8.5379   8.5389   8.9920   9.0221
     9.7619   9.7680  10.1164  10.1166  10.8163  10.8968  11.4088  11.4107
    11.7051  11.7418

          k = 0.2107 0.3649 0.0000 ( 15129 PWs)   bands (ev):

   -60.1893 -60.1893 -36.0470 -36.0341 -33.6216 -33.6067 -33.5100 -33.5067
   -11.9646 -11.9350 -11.5278 -11.5253  -4.4366  -4.4226  -3.7403  -3.7234
    -3.0479  -3.0351  -2.6916  -2.6687  -1.7678  -1.6965  -0.6906  -0.6695
    -0.1558  -0.0589   2.6713   2.7415   3.1878   3.1928   3.5524   3.5823
     5.0580   5.0660   8.2226   8.2477   8.6531   8.6540   8.9069   8.9460
     9.8336   9.8355  10.1444  10.1445  10.7596  10.8414  11.4701  11.4717
    11.7186  11.7640

          k = 0.2175 0.3767 0.0000 ( 15148 PWs)   bands (ev):

   -60.1881 -60.1881 -36.0507 -36.0370 -33.6275 -33.6105 -33.5127 -33.5103
   -11.9016 -11.8696 -11.5006 -11.4980  -4.4543  -4.4431  -3.8430  -3.8275
    -3.0253  -3.0133  -2.6875  -2.6652  -1.8541  -1.7851  -0.7411  -0.7220
    -0.1288  -0.0298   2.7174   2.7762   3.1996   3.2194   3.5922   3.6165
     5.0897   5.0908   8.2872   8.3160   8.7683   8.7693   8.8459   8.8941
     9.8728   9.8870  10.1843  10.1846  10.7237  10.7943  11.5361  11.5372
    11.7547  11.8032

          k = 0.2243 0.3884 0.0000 ( 15148 PWs)   bands (ev):

   -60.1871 -60.1871 -36.0543 -36.0397 -33.6331 -33.6140 -33.5154 -33.5139
   -11.8409 -11.8063 -11.4742 -11.4714  -4.4672  -4.4590  -3.9420  -3.9277
    -3.0059  -2.9948  -2.6783  -2.6565  -1.9436  -1.8769  -0.7936  -0.7766
    -0.0974   0.0036   2.7610   2.8034   3.2154   3.2552   3.6292   3.6473
     5.1136   5.1198   8.3134   8.3406   8.8219   8.8752   8.8858   8.8870
     9.8808   9.9095  10.2362  10.2369  10.7267  10.7785  11.6066  11.6070
    11.8032  11.8519

          k = 0.2311 0.4002 0.0000 ( 15148 PWs)   bands (ev):

   -60.1861 -60.1861 -36.0577 -36.0423 -33.6384 -33.6171 -33.5180 -33.5174
   -11.7827 -11.7456 -11.4487 -11.4457  -4.4746  -4.4696  -4.0368  -4.0236
    -2.9902  -2.9803  -2.6643  -2.6429  -2.0354  -1.9712  -0.8479  -0.8329
    -0.0618   0.0412   2.7958   2.8186   3.2399   3.3031   3.6627   3.6742
     5.1351   5.1490   8.2976   8.3155   8.8407   8.8957   8.9998   9.0006
     9.8659   9.9057  10.2999  10.3010  10.7719  10.8039  11.6804  11.6809
    11.8582  11.9059

          k = 0.2379 0.4120 0.0000 ( 15144 PWs)   bands (ev):

   -60.1851 -60.1851 -36.0609 -36.0446 -33.6433 -33.6198 -33.5210 -33.5206
   -11.7275 -11.6878 -11.4243 -11.4211  -4.4759  -4.4743  -4.1270  -4.1147
    -2.9789  -2.9701  -2.6457  -2.6249  -2.1284  -2.0671  -0.9036  -0.8907
    -0.0221   0.0830   2.8154   2.8193   3.2776   3.3640   3.6921   3.6967
     5.1562   5.1779   8.2516   8.2575   8.8759   8.9312   9.1136   9.1150
     9.8476   9.8906  10.3752  10.3770  10.8505  10.8664  11.7560  11.7576
    11.9172  11.9631

          k = 0.2447 0.4238 0.0000 ( 15138 PWs)   bands (ev):

   -60.1842 -60.1842 -36.0638 -36.0468 -33.6478 -33.6221 -33.5245 -33.5230
   -11.6755 -11.6332 -11.4010 -11.3977  -4.4725  -4.4707  -4.2121  -4.2007
    -2.9722  -2.9644  -2.6232  -2.6031  -2.2218  -2.1639  -0.9603  -0.9496
     0.0215   0.1288   2.8056   2.8164   3.3305   3.4363   3.7144   3.7170
     5.1775   5.2072   8.1848   8.1902   8.9013   8.9602   9.2261   9.2283
     9.8472   9.8854  10.4618  10.4642  10.9517  10.9559  11.8319  11.8348
    11.9787  12.0223

          k = 0.2514 0.4355 0.0000 ( 15134 PWs)   bands (ev):

   -60.1834 -60.1834 -36.0666 -36.0487 -33.6518 -33.6240 -33.5281 -33.5254
   -11.6269 -11.5821 -11.3791 -11.3756  -4.4637  -4.4584  -4.2919  -4.2811
    -2.9705  -2.9635  -2.5970  -2.5786  -2.3139  -2.2608  -1.0176  -1.0092
     0.0685   0.1782   2.7793   2.7995   3.3964   3.5172   3.7272   3.7372
     5.1997   5.2371   8.1082   8.1235   8.9015   8.9660   9.3369   9.3398
     9.8789   9.9074  10.5591  10.5622  11.0632  11.0672  11.9053  11.9099
    12.0422  12.0832

          k = 0.2582 0.4473 0.0000 ( 15136 PWs)   bands (ev):

   -60.1827 -60.1827 -36.0691 -36.0505 -33.6555 -33.6254 -33.5316 -33.5278
   -11.5820 -11.5348 -11.3586 -11.3550  -4.4478  -4.4389  -4.3659  -4.3558
    -2.9742  -2.9675  -2.5679  -2.5545  -2.4007  -2.3566  -1.0752  -1.0691
     0.1184   0.2308   2.7426   2.7676   3.4711   3.6034   3.7350   3.7530
     5.2230   5.2678   8.0330   8.0574   8.8737   8.9429   9.4456   9.4492
     9.9453   9.9633  10.6664  10.6701  11.1819  11.1919  11.9730  11.9795
    12.1073  12.1454

          k = 0.2650 0.4591 0.0000 ( 15122 PWs)   bands (ev):

   -60.1820 -60.1820 -36.0714 -36.0521 -33.6587 -33.6264 -33.5351 -33.5300
   -11.5409 -11.4914 -11.3396 -11.3359  -4.4348  -4.4260  -4.4236  -4.4104
    -2.9842  -2.9767  -2.5506  -2.5378  -2.4615  -2.4488  -1.1323  -1.1287
     0.1705   0.2858   2.6978   2.7245   3.5493   3.6918   3.7384   3.7653
     5.2475   5.2992   7.9626   7.9952   8.8240   8.8951   9.5515   9.5558
    10.0404  10.0492  10.7826  10.7869  11.3077  11.3219  12.0311  12.0396
    12.1736  12.2086

          k = 0.2718 0.4708 0.0000 ( 15112 PWs)   bands (ev):

   -60.1814 -60.1814 -36.0735 -36.0535 -33.6614 -33.6270 -33.5385 -33.5322
   -11.5039 -11.4523 -11.3222 -11.3184  -4.4961  -4.4873  -4.3934  -4.3770
    -3.0017  -2.9920  -2.6056  -2.5508  -2.4924  -2.4561  -1.1886  -1.1877
     0.2237   0.3424   2.6472   2.6732   3.6252   3.7370   3.7767   3.7804
     5.2730   5.3310   7.8992   7.9396   8.7602   8.8306   9.6540   9.6589
    10.1553  10.1567  10.9064  10.9112  11.4378  11.4548  12.0760  12.0863
    12.2399  12.2720

          k = 0.2786 0.4826 0.0000 ( 15124 PWs)   bands (ev):

   -60.1808 -60.1808 -36.0753 -36.0547 -33.6638 -33.6273 -33.5418 -33.5342
   -11.4710 -11.4174 -11.3066 -11.3027  -4.5516  -4.5433  -4.3552  -4.3354
    -3.0290  -3.0148  -2.6765  -2.6316  -2.4610  -2.4249  -1.2452  -1.2434
     0.2771   0.3994   2.5929   2.6167   3.6880   3.7326   3.7955   3.8657
     5.2992   5.3628   7.8446   7.8925   8.6890   8.7564   9.7522   9.7578
    10.2775  10.2822  11.0361  11.0415  11.5698  11.5881  12.1055  12.1171
    12.3040  12.3340

          k = 0.2854 0.4944 0.0000 ( 15108 PWs)   bands (ev):

   -60.1804 -60.1804 -36.0768 -36.0557 -33.6658 -33.6272 -33.5450 -33.5361
   -11.4423 -11.3868 -11.2927 -11.2888  -4.6007  -4.5927  -4.3100  -4.2867
    -3.0684  -3.0469  -2.7402  -2.7074  -2.4253  -2.3887  -1.3007  -1.2958
     0.3294   0.4555   2.5372   2.5577   3.7208   3.7254   3.8368   3.9460
     5.3255   5.3939   7.8001   7.8555   8.6144   8.6773   9.8450   9.8512
    10.4046  10.4146  11.1697  11.1753  11.7015  11.7196  12.1199  12.1320
    12.3619  12.3909

          k = 0.2922 0.5061 0.0000 ( 15118 PWs)   bands (ev):

   -60.1800 -60.1800 -36.0782 -36.0565 -33.6674 -33.6268 -33.5480 -33.5379
   -11.4178 -11.3607 -11.2807 -11.2768  -4.6432  -4.6356  -4.2582  -4.2317
    -3.1210  -3.0904  -2.7914  -2.7715  -2.3895  -2.3514  -1.3531  -1.3450
     0.3790   0.5093   2.4824   2.4989   3.7162   3.7285   3.8941   4.0194
     5.3510   5.4235   7.7672   7.8302   8.5393   8.5964   9.9310   9.9377
    10.5325  10.5472  11.3039  11.3096  11.8303  11.8467  12.1229  12.1347
    12.4083  12.4371

          k = 0.2990 0.5179 0.0000 ( 15110 PWs)   bands (ev):

   -60.1796 -60.1796 -36.0793 -36.0572 -33.6686 -33.6262 -33.5508 -33.5394
   -11.3974 -11.3389 -11.2705 -11.2666  -4.6790  -4.6717  -4.2010  -4.1715
    -3.1847  -3.1455  -2.8299  -2.8220  -2.3551  -2.3150  -1.4014  -1.3900
     0.4244   0.5590   2.4309   2.4429   3.7060   3.7264   3.9514   4.0839
     5.3750   5.4508   7.7465   7.8175   8.4656   8.5157  10.0083  10.0155
    10.6556  10.6744  11.4345  11.4396  11.9522  11.9658  12.1210  12.1321
    12.4399  12.4677

          k = 0.3058 0.5297 0.0000 ( 15122 PWs)   bands (ev):

   -60.1794 -60.1794 -36.0802 -36.0578 -33.6696 -33.6254 -33.5533 -33.5408
   -11.3811 -11.3215 -11.2623 -11.2584  -4.7082  -4.7011  -4.1399  -4.1079
    -3.2548  -3.2089  -2.8597  -2.8582  -2.3238  -2.2811  -1.4443  -1.4295
     0.4642   0.6028   2.3849   2.3924   3.6957   3.7208   4.0017   4.1382
     5.3965   5.4750   7.7383   7.8181   8.3948   8.4368  10.0748  10.0824
    10.7684  10.7907  11.5549  11.5585  12.0599  12.0703  12.1230  12.1334
    12.4608  12.4850

          k = 0.3126 0.5415 0.0000 ( 15122 PWs)   bands (ev):

   -60.1792 -60.1792 -36.0809 -36.0582 -33.6702 -33.6247 -33.5555 -33.5419
   -11.3687 -11.3082 -11.2559 -11.2520  -4.7307  -4.7238  -4.0781  -4.0441
    -3.3251  -3.2746  -2.8873  -2.8790  -2.2971  -2.2517  -1.4802  -1.4621
     0.4967   0.6390   2.3466   2.3500   3.6861   3.7142   4.0422   4.1811
     5.4147   5.4952   7.7418   7.8314   8.3293   8.3616  10.1285  10.1363
    10.8648  10.8900  11.6561  11.6568  12.1291  12.1352  12.1536  12.1579
    12.4846  12.4986

          k = 0.3194 0.5532 0.0000 ( 15130 PWs)   bands (ev):

   -60.1790 -60.1790 -36.0814 -36.0584 -33.6706 -33.6240 -33.5571 -33.5427
   -11.3601 -11.2989 -11.2514 -11.2475  -4.7467  -4.7399  -4.0208  -3.9856
    -3.3885  -3.3347  -2.9069  -2.8941  -2.2765  -2.2288  -1.5074  -1.4865
     0.5207   0.6660   2.3178   2.3179   3.6782   3.7082   4.0715   4.2118
     5.4286   5.5106   7.7540   7.8549   8.2724   8.2936  10.1676  10.1756
    10.9389  10.9660  11.7262  11.7295  12.1554  12.1691  12.1943  12.2070
    12.4659  12.4682

          k = 0.3262 0.5650 0.0000 ( 15138 PWs)   bands (ev):

   -60.1789 -60.1789 -36.0817 -36.0586 -33.6708 -33.6234 -33.5582 -33.5432
   -11.3551 -11.2935 -11.2487 -11.2449  -4.7563  -4.7495  -3.9769  -3.9413
    -3.4354  -3.3792  -2.9195  -2.9038  -2.2635  -2.2142  -1.5245  -1.5016
     0.5353   0.6827   2.2978   2.2999   3.6729   3.7038   4.0893   4.2303
     5.4376   5.5204   7.7693   7.8816   8.2302   8.2400  10.1912  10.1992
    10.9856  11.0136  11.7648  11.7715  12.1851  12.2015  12.2123  12.2292
    12.4456  12.4456

          k = 0.3330 0.5768 0.0000 ( 15144 PWs)   bands (ev):

   -60.1789 -60.1789 -36.0817 -36.0586 -33.6709 -33.6232 -33.5586 -33.5434
   -11.3533 -11.2916 -11.2478 -11.2439  -4.7597  -4.7529  -3.9587  -3.9233
    -3.4542  -3.3968  -2.9245  -2.9076  -2.2589  -2.2089  -1.5305  -1.5070
     0.5405   0.6885   2.2906   2.2936   3.6708   3.7020   4.0955   4.2367
     5.4409   5.5240   7.7775   7.8962   8.2126   8.2161  10.1993  10.2073
    11.0022  11.0305  11.7772  11.7853  12.2015  12.2167  12.2185  12.2349
    12.4369  12.4381

          k = 0.3388 0.5668 0.0000 ( 15140 PWs)   bands (ev):

   -60.1789 -60.1789 -36.0817 -36.0586 -33.6709 -33.6234 -33.5583 -33.5433
   -11.3544 -11.2928 -11.2484 -11.2446  -4.7574  -4.7506  -3.9716  -3.9360
    -3.4416  -3.3853  -2.9203  -2.9044  -2.2620  -2.2124  -1.5266  -1.5035
     0.5371   0.6847   2.2954   2.2978   3.6724   3.7034   4.0914   4.2325
     5.4385   5.5214   7.7699   7.8834   8.2265   8.2351  10.1941  10.2022
    10.9914  11.0195  11.7696  11.7768  12.1843  12.2009  12.2139  12.2310
    12.4458  12.4462

          k = 0.3445 0.5569 0.0000 ( 15144 PWs)   bands (ev):

   -60.1790 -60.1790 -36.0815 -36.0585 -33.6708 -33.6239 -33.5575 -33.5429
   -11.3576 -11.2962 -11.2501 -11.2463  -4.7511  -4.7443  -4.0056  -3.9696
    -3.4100  -3.3572  -2.9058  -2.8933  -2.2705  -2.2220  -1.5157  -1.4939
     0.5279   0.6741   2.3089   2.3098   3.6773   3.7077   4.0800   4.2208
     5.4314   5.5137   7.7473   7.8495   8.2668   8.2868  10.1802  10.1883
    10.9617  10.9899  11.7488  11.7539  12.1302  12.1449  12.2035  12.2170
    12.4750  12.4764

          k = 0.3503 0.5470 0.0000 ( 15142 PWs)   bands (ev):

   -60.1791 -60.1791 -36.0812 -36.0584 -33.6707 -33.6247 -33.5561 -33.5422
   -11.3625 -11.3016 -11.2529 -11.2491  -4.7408  -4.7339  -4.0539  -4.0178
    -3.3692  -3.3230  -2.8775  -2.8714  -2.2836  -2.2368  -1.4992  -1.4793
     0.5135   0.6578   2.3287   2.3302   3.6859   3.7152   4.0621   4.2021
     5.4195   5.5009   7.7125   7.8027   8.3301   8.3621  10.1591  10.1671
    10.9163  10.9446  11.7157  11.7178  12.0435  12.0551  12.1815  12.1893
    12.5179  12.5197

          k = 0.3560 0.5370 0.0000 ( 15128 PWs)   bands (ev):

   -60.1792 -60.1792 -36.0808 -36.0582 -33.6706 -33.6258 -33.5542 -33.5412
   -11.3691 -11.3088 -11.2567 -11.2529  -4.7269  -4.7199  -4.1108  -4.0748
    -3.3288  -3.2918  -2.8353  -2.8318  -2.3004  -2.2554  -1.4783  -1.4608
     0.4951   0.6369   2.3535   2.3582   3.6985   3.7262   4.0384   4.1774
     5.4026   5.4828   7.6697   7.7495   8.4115   8.4539  10.1324  10.1402
    10.8582  10.8870  11.6675  11.6695  11.9371  11.9446  12.1448  12.1467
    12.4883  12.4965

          k = 0.3618 0.5271 0.0000 ( 15122 PWs)   bands (ev):

   -60.1793 -60.1793 -36.0804 -36.0580 -33.6705 -33.6273 -33.5518 -33.5400
   -11.3771 -11.3177 -11.2614 -11.2576  -4.7095  -4.7024  -4.1723  -4.1366
    -3.2955  -3.2691  -2.7825  -2.7676  -2.3198  -2.2766  -1.4545  -1.4395
     0.4736   0.6126   2.3833   2.3916   3.7154   3.7408   4.0099   4.1474
     5.3808   5.4595   7.6221   7.6933   8.5069   8.5579  10.1015  10.1092
    10.7902  10.8197  11.5969  11.6044  11.8275  11.8298  12.0906  12.0934
    12.4563  12.4690

          k = 0.3676 0.5172 0.0000 ( 15122 PWs)   bands (ev):

   -60.1795 -60.1795 -36.0798 -36.0578 -33.6705 -33.6289 -33.5490 -33.5384
   -11.3863 -11.3280 -11.2669 -11.2631  -4.6890  -4.6818  -4.2360  -4.2010
    -3.2722  -3.2559  -2.7128  -2.6863  -2.3410  -2.2993  -1.4290  -1.4166
     0.4500   0.5861   2.4170   2.4292   3.7367   3.7585   3.9781   4.1129
     5.3543   5.4311   7.5718   7.6361   8.6134   8.6715  10.0679  10.0754
    10.7146  10.7452  11.4958  11.5082  11.7303  11.7327  12.0234  12.0296
    12.4143  12.4299

          k = 0.3733 0.5072 0.0000 ( 15128 PWs)   bands (ev):

   -60.1797 -60.1797 -36.0792 -36.0576 -33.6705 -33.6308 -33.5459 -33.5366
   -11.3967 -11.3395 -11.2731 -11.2693  -4.6657  -4.6582  -4.3004  -4.2662
    -3.2585  -3.2506  -2.6287  -2.5914  -2.3630  -2.3220  -1.4028  -1.3929
     0.4252   0.5583   2.4534   2.4699   3.7627   3.7783   3.9450   4.0747
     5.3232   5.3978   7.5202   7.5787   8.7287   8.7928  10.0326  10.0399
    10.6331  10.6652  11.3631  11.3775  11.6549  11.6590  11.9471  11.9555
    12.3500  12.3675

          k = 0.3791 0.4973 0.0000 ( 15124 PWs)   bands (ev):

   -60.1799 -60.1799 -36.0785 -36.0574 -33.6706 -33.6329 -33.5425 -33.5345
   -11.4079 -11.3521 -11.2799 -11.2761  -4.6398  -4.6321  -4.3645  -4.3314
    -3.2527  -3.2511  -2.5347  -2.4862  -2.3852  -2.3426  -1.3767  -1.3692
     0.3999   0.5301   2.4917   2.5126   3.7934   3.7954   3.9162   4.0337
     5.2879   5.3600   7.4683   7.5218   8.8510   8.9203   9.9966  10.0035
    10.5471  10.5809  11.2098  11.2242  11.5955  11.5991  11.8624  11.8721
    12.2592  12.2775

          k = 0.3848 0.4874 0.0000 ( 15122 PWs)   bands (ev):

   -60.1801 -60.1801 -36.0777 -36.0572 -33.6707 -33.6350 -33.5389 -33.5322
   -11.4198 -11.3655 -11.2872 -11.2835  -4.6118  -4.6038  -4.4275  -4.3957
    -3.2557  -3.2526  -2.4443  -2.4079  -2.3725  -2.3500  -1.3515  -1.3463
     0.3748   0.5022   2.5308   2.5562   3.7968   3.8284   3.9056   3.9909
     5.2487   5.3180   7.4165   7.4657   8.9787   9.0527   9.9605   9.9671
    10.4574  10.4934  11.0455  11.0593  11.5437  11.5465  11.7690  11.7794
    12.1551  12.1729

          k = 0.3906 0.4774 0.0000 ( 15122 PWs)   bands (ev):

   -60.1803 -60.1803 -36.0769 -36.0570 -33.6708 -33.6373 -33.5352 -33.5297
   -11.4322 -11.3796 -11.2949 -11.2913  -4.5826  -4.5737  -4.4885  -4.4587
    -3.2632  -3.2567  -2.4286  -2.4157  -2.2880  -2.2544  -1.3276  -1.3246
     0.3503   0.4752   2.5701   2.6000   3.7727   3.8658   3.9238   3.9491
     5.2062   5.2724   7.3654   7.4108   9.1100   9.1884   9.9248   9.9310
    10.3650  10.4035  10.8753  10.8886  11.4960  11.4978  11.6670  11.6773
    12.0522  12.0688

          k = 0.3963 0.4675 0.0000 ( 15142 PWs)   bands (ev):

   -60.1805 -60.1805 -36.0761 -36.0568 -33.6711 -33.6396 -33.5313 -33.5270
   -11.4450 -11.3943 -11.3029 -11.2994  -4.5626  -4.5430  -4.5370  -4.5191
    -3.2726  -3.2638  -2.4485  -2.4287  -2.1780  -2.1318  -1.3056  -1.3046
     0.3268   0.4493   2.6087   2.6431   3.7347   3.8812   3.9331   3.9596
     5.1608   5.2236   7.3151   7.3571   9.2432   9.3258   9.8899   9.8957
    10.2711  10.3124  10.7024  10.7154  11.4509  11.4519  11.5577  11.5672
    11.9576  11.9726

          k = 0.4021 0.4576 0.0000 ( 15142 PWs)   bands (ev):

   -60.1808 -60.1808 -36.0752 -36.0566 -33.6713 -33.6419 -33.5274 -33.5241
   -11.4580 -11.4093 -11.3112 -11.3078  -4.6101  -4.5800  -4.5148  -4.5087
    -3.2833  -3.2729  -2.4668  -2.4462  -2.0586  -2.0064  -1.2864  -1.2856
     0.3046   0.4247   2.6460   2.6848   3.6919   3.8443   3.9738   4.0044
     5.1131   5.1723   7.2659   7.3049   9.3751   9.4618   9.8560   9.8613
    10.1775  10.2219  10.5289  10.5418  11.4074  11.4078  11.4449  11.4527
    11.8733  11.8865

          k = 0.4079 0.4476 0.0000 ( 15112 PWs)   bands (ev):

   -60.1810 -60.1810 -36.0743 -36.0565 -33.6716 -33.6443 -33.5234 -33.5212
   -11.4710 -11.4244 -11.3195 -11.3163  -4.6650  -4.6369  -4.4823  -4.4755
    -3.2949  -3.2834  -2.4834  -2.4632  -1.9355  -1.8791  -1.2705  -1.2679
     0.2835   0.4016   2.6814   2.7245   3.6477   3.7995   4.0271   4.0553
     5.0639   5.1191   7.2181   7.2543   9.5004   9.5899   9.8229   9.8277
    10.0896  10.1360  10.3571  10.3698  11.3274  11.3364  11.3685  11.3695
    11.7985  11.8102

          k = 0.4136 0.4377 0.0000 ( 15114 PWs)   bands (ev):

   -60.1813 -60.1813 -36.0733 -36.0564 -33.6719 -33.6466 -33.5196 -33.5181
   -11.4839 -11.4396 -11.3279 -11.3248  -4.7179  -4.6915  -4.4489  -4.4420
    -3.3069  -3.2948  -2.4981  -2.4788  -1.8108  -1.7510  -1.2567  -1.2526
     0.2637   0.3798   2.7143   2.7616   3.6037   3.7544   4.0857   4.1110
     5.0138   5.0646   7.1717   7.2054   9.6062   9.6907   9.7902   9.7942
    10.0239  10.0647  10.1906  10.2031  11.2185  11.2264  11.3293  11.3295
    11.7318  11.7422

          k = 0.4194 0.4278 0.0000 ( 15114 PWs)   bands (ev):

   -60.1815 -60.1815 -36.0724 -36.0563 -33.6722 -33.6489 -33.5158 -33.5150
   -11.4965 -11.4546 -11.3362 -11.3332  -4.7681  -4.7434  -4.4155  -4.4085
    -3.3193  -3.3069  -2.5106  -2.4924  -1.6856  -1.6229  -1.2451  -1.2395
     0.2449   0.3592   2.7443   2.7954   3.5611   3.7102   4.1484   4.1706
     4.9636   5.0096   7.1269   7.1582   9.6628   9.7150   9.7561   9.7581
     9.9978  10.0020  10.0677  10.0752  11.1171  11.1244  11.2924  11.2926
    11.6718  11.6815

          k = 0.4251 0.4178 0.0000 ( 15114 PWs)   bands (ev):

   -60.1818 -60.1818 -36.0714 -36.0563 -33.6726 -33.6511 -33.5121 -33.5119
   -11.5088 -11.4693 -11.3443 -11.3415  -4.8156  -4.7926  -4.3826  -4.3757
    -3.3316  -3.3192  -2.5210  -2.5040  -1.5613  -1.4959  -1.2354  -1.2285
     0.2271   0.3395   2.7711   2.8255   3.5207   3.6678   4.2144   4.2331
     4.9142   4.9548   7.0837   7.1129   9.6440   9.6555   9.7094   9.7138
     9.8713   9.8765  10.1004  10.1338  11.0279  11.0349  11.2577  11.2581
    11.6179  11.6270

          k = 0.4309 0.4079 0.0000 ( 15102 PWs)   bands (ev):

   -60.1820 -60.1820 -36.0704 -36.0563 -33.6729 -33.6532 -33.5089 -33.5085
   -11.5205 -11.4837 -11.3522 -11.3496  -4.8601  -4.8387  -4.3505  -4.3438
    -3.3437  -3.3316  -2.5291  -2.5135  -1.4395  -1.3719  -1.2263  -1.2186
     0.2097   0.3204   2.7942   2.8512   3.4836   3.6277   4.2831   4.2976
     4.8663   4.9008   7.0425   7.0695   9.5619   9.5717   9.6225   9.6366
     9.7740   9.7757  10.1870  10.2388  10.9555  10.9633  11.2252  11.2259
    11.5694  11.5782

          k = 0.4367 0.3980 0.0000 ( 15098 PWs)   bands (ev):

   -60.1822 -60.1822 -36.0695 -36.0563 -33.6731 -33.6553 -33.5059 -33.5052
   -11.5316 -11.4975 -11.3597 -11.3573  -4.9014  -4.8817  -4.3197  -4.3132
    -3.3554  -3.3438  -2.5352  -2.5208  -1.3250  -1.2638  -1.2056  -1.2055
     0.1925   0.3014   2.8136   2.8721   3.4505   3.5903   4.3534   4.3626
     4.8214   4.8485   7.0032   7.0281   9.4529   9.4655   9.5076   9.5184
     9.7249   9.7287  10.2786  10.3364  10.9072  10.9183  11.1951  11.1959
    11.5262  11.5349

          k = 0.4424 0.3880 0.0000 ( 15112 PWs)   bands (ev):

   -60.1825 -60.1824 -36.0685 -36.0564 -33.6733 -33.6573 -33.5030 -33.5020
   -11.5419 -11.5106 -11.3669 -11.3646  -4.9394  -4.9214  -4.2906  -4.2844
    -3.3666  -3.3556  -2.5391  -2.5261  -1.2468  -1.2323  -1.1611  -1.1131
     0.1751   0.2820   2.8291   2.8877   3.4221   3.5561   4.4242   4.4261
     4.7810   4.7987   6.9660   6.9889   9.3290   9.3317   9.4022   9.4054
     9.6958   9.6995  10.3508  10.4049  10.8929  10.9123  11.1674  11.1682
    11.4884  11.4972

          k = 0.4482 0.3781 0.0000 ( 15106 PWs)   bands (ev):

   -60.1826 -60.1826 -36.0676 -36.0566 -33.6735 -33.6592 -33.5003 -33.4991
   -11.5514 -11.5230 -11.3735 -11.3714  -4.9741  -4.9578  -4.2634  -4.2576
    -3.3771  -3.3669  -2.5413  -2.5296  -1.2279  -1.2278  -1.0626  -0.9989
     0.1569   0.2618   2.8407   2.8979   3.3991   3.5254   4.4844   4.4938
     4.7486   4.7529   6.9312   6.9521   9.1943   9.1972   9.2995   9.3102
     9.6735   9.6767  10.3892  10.4329  10.9204  10.9523  11.1421  11.1430
    11.4567  11.4656

          k = 0.4539 0.3682 0.0000 ( 15110 PWs)   bands (ev):

   -60.1828 -60.1828 -36.0667 -36.0568 -33.6736 -33.6610 -33.4978 -33.4965
   -11.5599 -11.5345 -11.3796 -11.3778  -5.0053  -4.9907  -4.2384  -4.2330
    -3.3868  -3.3775  -2.5417  -2.5314  -1.2272  -1.2242  -0.9550  -0.8868
     0.1377   0.2402   2.8488   2.9027   3.3817   3.4981   4.5300   4.5584
     4.7140   4.7307   6.8990   6.9178   9.0627   9.0678   9.2067   9.2204
     9.6548   9.6576  10.3955  10.4280  10.9829  11.0260  11.1194  11.1203
    11.4325  11.4412

          k = 0.4597 0.3582 0.0000 ( 15110 PWs)   bands (ev):

   -60.1830 -60.1830 -36.0657 -36.0571 -33.6736 -33.6627 -33.4954 -33.4941
   -11.5675 -11.5451 -11.3851 -11.3835  -5.0328  -5.0201  -4.2158  -4.2110
    -3.3955  -3.3872  -2.5409  -2.5319  -1.2282  -1.2241  -0.8498  -0.7797
     0.1170   0.2167   2.8538   2.9029   3.3696   3.4744   4.5523   4.6034
     4.6959   4.7373   6.8696   6.8863   8.9401   8.9460   9.1229   9.1373
     9.6390   9.6413  10.3826  10.4068  11.0617  11.0987  11.0994  11.1123
    11.4197  11.4267

          k = 0.4654 0.3483 0.0000 ( 15106 PWs)   bands (ev):

   -60.1831 -60.1831 -36.0649 -36.0574 -33.6736 -33.6642 -33.4933 -33.4921
   -11.5739 -11.5546 -11.3900 -11.3886  -5.0568  -5.0458  -4.1959  -4.1916
    -3.4032  -3.3960  -2.5390  -2.5314  -1.2300  -1.2258  -0.7497  -0.6788
     0.0946   0.1908   2.8563   2.8992   3.3625   3.4540   4.5507   4.6005
     4.7258   4.7679   6.8433   6.8578   8.8286   8.8347   9.0484   9.0623
     9.6255   9.6275  10.3620  10.3803  11.0813  11.0821  11.1379  11.1848
    11.4268  11.4277

          k = 0.4712 0.3383 0.0000 ( 15108 PWs)   bands (ev):

   -60.1833 -60.1833 -36.0640 -36.0577 -33.6734 -33.6657 -33.4915 -33.4903
   -11.5792 -11.5631 -11.3942 -11.3930  -5.0770  -5.0679  -4.1788  -4.1752
    -3.4098  -3.4037  -2.5365  -2.5302  -1.2324  -1.2284  -0.6561  -0.5856
     0.0708   0.1622   2.8569   2.8930   3.3595   3.4365   4.5377   4.5763
     4.7762   4.8087   6.8205   6.8328   8.7303   8.7360   8.9842   8.9967
     9.6143   9.6159  10.3402  10.3541  11.0665  11.0671  11.1932  11.2285
    11.4518  11.4640

          k = 0.4770 0.3284 0.0000 ( 15098 PWs)   bands (ev):

   -60.1834 -60.1834 -36.0632 -36.0582 -33.6732 -33.6670 -33.4899 -33.4889
   -11.5833 -11.5704 -11.3976 -11.3966  -5.0935  -5.0861  -4.1646  -4.1616
    -3.4151  -3.4102  -2.5337  -2.5287  -1.2348  -1.2313  -0.5702  -0.5021
     0.0461   0.1310   2.8566   2.8854   3.3597   3.4216   4.5226   4.5515
     4.8249   4.8492   6.8015   6.8115   8.6469   8.6519   8.9309   8.9415
     9.6052   9.6064  10.3204  10.3309  11.0543  11.0548  11.2221  11.2438
    11.4993  11.5241

          k = 0.4827 0.3185 0.0000 ( 15108 PWs)   bands (ev):

   -60.1835 -60.1835 -36.0624 -36.0586 -33.6728 -33.6682 -33.4886 -33.4878
   -11.5862 -11.5765 -11.4003 -11.3996  -5.1061  -5.1006  -4.1534  -4.1511
    -3.4192  -3.4155  -2.5310  -2.5272  -1.2369  -1.2341  -0.4935  -0.4313
     0.0226   0.0975   2.8562   2.8776   3.3624   3.4089   4.5096   4.5302
     4.8664   4.8838   6.7867   6.7942   8.5800   8.5841   8.8892   8.8975
     9.5981   9.5991  10.3044  10.3119  11.0447  11.0451  11.2330  11.2455
    11.5570  11.5878

          k = 0.4885 0.3085 0.0000 ( 15098 PWs)   bands (ev):

   -60.1835 -60.1835 -36.0617 -36.0591 -33.6724 -33.6693 -33.4876 -33.4871
   -11.5878 -11.5813 -11.4022 -11.4017  -5.1149  -5.1112  -4.1452  -4.1437
    -3.4220  -3.4195  -2.5286  -2.5261  -1.2384  -1.2365  -0.4283  -0.3779
     0.0043   0.0632   2.8562   2.8703   3.3669   3.3979   4.5003   4.5137
     4.8983   4.9097   6.7762   6.7812   8.5313   8.5341   8.8595   8.8652
     9.5932   9.5938  10.2929  10.2977  11.0379  11.0382  11.2361  11.2431
    11.6114  11.6409

          k = 0.4942 0.2986 0.0000 ( 15092 PWs)   bands (ev):

   -60.1836 -60.1836 -36.0610 -36.0597 -33.6718 -33.6702 -33.4870 -33.4867
   -11.5881 -11.5849 -11.4033 -11.4030  -5.1198  -5.1180  -4.1402  -4.1394
    -3.4234  -3.4222  -2.5268  -2.5256  -1.2392  -1.2383  -0.3784  -0.3490
    -0.0025   0.0312   2.8574   2.8644   3.3729   3.3884   4.4958   4.5024
     4.9192   4.9248   6.7703   6.7728   8.5018   8.5033   8.8422   8.8451
     9.5903   9.5906  10.2863  10.2887  11.0338  11.0340  11.2370  11.2402
    11.6537  11.6734

          k = 0.5000 0.2887 0.0000 ( 15090 PWs)   bands (ev):

   -60.1836 -60.1836 -36.0603 -36.0603 -33.6711 -33.6711 -33.4867 -33.4867
   -11.5872 -11.5872 -11.4036 -11.4036  -5.1208  -5.1208  -4.1382  -4.1382
    -3.4235  -3.4235  -2.5258  -2.5258  -1.2392  -1.2392  -0.3497  -0.3497
     0.0071   0.0071   2.8601   2.8601   3.3800   3.3800   4.4965   4.4965
     4.9281   4.9281   6.7692   6.7692   8.4924   8.4924   8.8374   8.8374
     9.5894   9.5894  10.2849  10.2849  11.0325  11.0325  11.2381  11.2381
    11.6771  11.6771

          k = 0.4898 0.2828 0.0000 ( 15102 PWs)   bands (ev):

   -60.1836 -60.1836 -36.0602 -36.0602 -33.6708 -33.6708 -33.4867 -33.4867
   -11.5897 -11.5897 -11.4045 -11.4045  -5.1183  -5.1183  -4.1357  -4.1357
    -3.4222  -3.4222  -2.5246  -2.5246  -1.2383  -1.2383  -0.3512  -0.3512
     0.0042   0.0042   2.8595   2.8595   3.3774   3.3774   4.4948   4.4948
     4.9273   4.9273   6.7776   6.7776   8.4906   8.4906   8.8319   8.8319
     9.5875   9.5875  10.2827  10.2827  11.0306  11.0306  11.2025  11.2025
    11.7218  11.7218

          k = 0.4796 0.2769 0.0000 ( 15104 PWs)   bands (ev):

   -60.1837 -60.1837 -36.0598 -36.0598 -33.6701 -33.6701 -33.4866 -33.4866
   -11.5972 -11.5972 -11.4073 -11.4073  -5.1108  -5.1108  -4.1282  -4.1282
    -3.4184  -3.4184  -2.5209  -2.5209  -1.2356  -1.2356  -0.3557  -0.3557
    -0.0046  -0.0046   2.8577   2.8577   3.3697   3.3697   4.4897   4.4897
     4.9251   4.9251   6.8026   6.8026   8.4854   8.4854   8.8156   8.8156
     9.5818   9.5818  10.2746  10.2746  11.0254  11.0254  11.1261  11.1261
    11.8091  11.8091

          k = 0.4694 0.2710 0.0000 ( 15100 PWs)   bands (ev):

   -60.1839 -60.1839 -36.0592 -36.0592 -33.6689 -33.6689 -33.4865 -33.4865
   -11.6097 -11.6097 -11.4119 -11.4119  -5.0983  -5.0983  -4.1157  -4.1157
    -3.4121  -3.4121  -2.5148  -2.5148  -1.2312  -1.2312  -0.3632  -0.3632
    -0.0190  -0.0190   2.8549   2.8549   3.3570   3.3570   4.4811   4.4811
     4.9213   4.9213   6.8438   6.8438   8.4771   8.4771   8.7894   8.7894
     9.5714   9.5714  10.2567  10.2567  11.0185  11.0185  11.0463  11.0463
    11.8410  11.8410

          k = 0.4592 0.2651 0.0000 ( 15092 PWs)   bands (ev):

   -60.1842 -60.1842 -36.0583 -36.0583 -33.6673 -33.6673 -33.4864 -33.4864
   -11.6270 -11.6270 -11.4183 -11.4183  -5.0811  -5.0811  -4.0983  -4.0983
    -3.4036  -3.4036  -2.5063  -2.5063  -1.2249  -1.2249  -0.3737  -0.3737
    -0.0384  -0.0384   2.8512   2.8512   3.3400   3.3400   4.4690   4.4690
[...]
   -12.1839 -12.1839 -11.6329 -11.6329  -4.5572  -4.5572  -3.4894  -3.4894
    -3.2554  -3.2554  -2.1847  -2.1847  -0.9745  -0.9744  -0.7629  -0.7629
    -0.3251  -0.3251   2.8300   2.8300   2.9561   2.9561   3.9794   3.9794
     4.6881   4.6881   7.7468   7.7468   8.1343   8.1343   8.5338   8.5338
     9.2167   9.2167   9.2633   9.2633  10.5875  10.5875  11.3179  11.3179
    12.5175  12.5175

          k = 0.3163 0.1826 0.0000 ( 15138 PWs)   bands (ev):

   -60.1947 -60.1947 -36.0253 -36.0253 -33.6039 -33.6039 -33.4780 -33.4780
   -12.2420 -12.2420 -11.6559 -11.6559  -4.5113  -4.5113  -3.4207  -3.4207
    -3.2514  -3.2514  -2.1452  -2.1452  -0.9454  -0.9454  -0.8060  -0.8060
    -0.3148  -0.3148   2.8356   2.8356   2.9330   2.9330   3.9205   3.9205
     4.6566   4.6566   7.6720   7.6720   8.0696   8.0696   8.6327   8.6327
     9.2059   9.2059   9.2753   9.2753  10.5277  10.5277  11.3274  11.3274
    12.5647  12.5647

          k = 0.3061 0.1767 0.0000 ( 15140 PWs)   bands (ev):

   -60.1958 -60.1958 -36.0219 -36.0219 -33.5976 -33.5976 -33.4765 -33.4765
   -12.3009 -12.3009 -11.6793 -11.6793  -4.4686  -4.4686  -3.3508  -3.3508
    -3.2465  -3.2465  -2.1038  -2.1038  -0.9238  -0.9238  -0.8418  -0.8418
    -0.2969  -0.2969   2.8390   2.8390   2.9166   2.9166   3.8603   3.8603
     4.6230   4.6230   7.5924   7.5924   7.9995   7.9995   8.7121   8.7121
     9.1962   9.1962   9.3201   9.3201  10.4673  10.4673  11.3265  11.3265
    12.6019  12.6019

          k = 0.2959 0.1708 0.0000 ( 15150 PWs)   bands (ev):

   -60.1969 -60.1969 -36.0185 -36.0185 -33.5913 -33.5913 -33.4748 -33.4748
   -12.3602 -12.3602 -11.7030 -11.7030  -4.4303  -4.4303  -3.2837  -3.2837
    -3.2357  -3.2357  -2.0607  -2.0607  -0.9352  -0.9352  -0.8447  -0.8447
    -0.2717  -0.2717   2.8361   2.8361   2.9112   2.9112   3.7992   3.7992
     4.5872   4.5872   7.5103   7.5103   7.9252   7.9252   8.7593   8.7593
     9.2131   9.2131   9.3789   9.3789  10.4070  10.4070  11.3149  11.3149
    12.6211  12.6211

          k = 0.2857 0.1650 0.0000 ( 15145 PWs)   bands (ev):

   -60.1981 -60.1981 -36.0150 -36.0150 -33.5851 -33.5851 -33.4728 -33.4728
   -12.4197 -12.4197 -11.7269 -11.7269  -4.3977  -4.3977  -3.2463  -3.2463
    -3.1912  -3.1912  -2.0160  -2.0160  -0.9765  -0.9765  -0.8177  -0.8177
    -0.2397  -0.2397   2.8267   2.8267   2.9177   2.9177   3.7379   3.7379
     4.5492   4.5492   7.4270   7.4270   7.8481   7.8481   8.7706   8.7706
     9.2579   9.2579   9.4483   9.4483  10.3473  10.3473  11.2931  11.2931
    12.6153  12.6153

          k = 0.2755 0.1591 0.0000 ( 15155 PWs)   bands (ev):

   -60.1993 -60.1993 -36.0114 -36.0114 -33.5790 -33.5790 -33.4706 -33.4706
   -12.4791 -12.4791 -11.7508 -11.7508  -4.3720  -4.3720  -3.2304  -3.2304
    -3.1196  -3.1196  -1.9697  -1.9697  -1.0255  -1.0255  -0.7830  -0.7830
    -0.2014  -0.2014   2.8147   2.8147   2.9321   2.9321   3.6768   3.6768
     4.5091   4.5091   7.3436   7.3436   7.7692   7.7692   8.7551   8.7551
     9.3179   9.3179   9.5264   9.5264  10.2889  10.2889  11.2625  11.2625
    12.5800  12.5800

          k = 0.2653 0.1532 0.0000 ( 15155 PWs)   bands (ev):

   -60.2004 -60.2004 -36.0079 -36.0079 -33.5730 -33.5730 -33.4680 -33.4680
   -12.5382 -12.5382 -11.7746 -11.7746  -4.3544  -4.3544  -3.2122  -3.2122
    -3.0437  -3.0437  -1.9220  -1.9220  -1.0769  -1.0769  -0.7460  -0.7460
    -0.1578  -0.1578   2.8035   2.8035   2.9515   2.9515   3.6167   3.6167
     4.4668   4.4668   7.2606   7.2606   7.6897   7.6897   8.7235   8.7235
     9.3773   9.3773   9.6120   9.6120  10.2340  10.2340  11.2246  11.2246
    12.5239  12.5239

          k = 0.2551 0.1473 0.0000 ( 15155 PWs)   bands (ev):

   -60.2016 -60.2016 -36.0043 -36.0043 -33.5673 -33.5673 -33.4651 -33.4651
   -12.5968 -12.5968 -11.7983 -11.7983  -4.3454  -4.3454  -3.1881  -3.1881
    -2.9661  -2.9661  -1.8731  -1.8731  -1.1295  -1.1295  -0.7081  -0.7081
    -0.1098  -0.1098   2.7951   2.7951   2.9742   2.9742   3.5581   3.5581
     4.4226   4.4226   7.1786   7.1786   7.6101   7.6101   8.6825   8.6825
     9.4228   9.4228   9.7034   9.7034  10.1864  10.1864  11.1813  11.1813
    12.4650  12.4650

          k = 0.2449 0.1414 0.0000 ( 15165 PWs)   bands (ev):

   -60.2028 -60.2028 -36.0008 -36.0008 -33.5619 -33.5619 -33.4618 -33.4618
   -12.6546 -12.6546 -11.8218 -11.8218  -4.3452  -4.3452  -3.1569  -3.1569
    -2.8876  -2.8876  -1.8230  -1.8230  -1.1824  -1.1824  -0.6702  -0.6702
    -0.0583  -0.0583   2.7902   2.7902   2.9997   2.9997   3.5017   3.5017
     4.3765   4.3765   7.0979   7.0979   7.5311   7.5311   8.6358   8.6358
     9.4431   9.4431   9.7992   9.7992  10.1527  10.1527  11.1345  11.1345
    12.4148  12.4148

          k = 0.2347 0.1355 0.0000 ( 15175 PWs)   bands (ev):

   -60.2040 -60.2040 -35.9973 -35.9973 -33.5569 -33.5569 -33.4582 -33.4582
   -12.7116 -12.7116 -11.8449 -11.8449  -4.3536  -4.3536  -3.1185  -3.1185
    -2.8084  -2.8084  -1.7719  -1.7719  -1.2354  -1.2354  -0.6329  -0.6329
    -0.0045  -0.0045   2.7896   2.7896   3.0273   3.0273   3.4481   3.4481
     4.3285   4.3286   7.0188   7.0188   7.4533   7.4533   8.5849   8.5849
     9.4299   9.4299   9.8975   9.8975  10.1391  10.1391  11.0860  11.0860
    12.3775  12.3775

          k = 0.2245 0.1296 0.0000 ( 15167 PWs)   bands (ev):

   -60.2052 -60.2052 -35.9938 -35.9938 -33.5522 -33.5522 -33.4542 -33.4542
   -12.7674 -12.7674 -11.8677 -11.8677  -4.3699  -4.3699  -3.0733  -3.0733
    -2.7286  -2.7286  -1.7201  -1.7201  -1.2881  -1.2881  -0.5969  -0.5969
     0.0506   0.0506   2.7938   2.7938   3.0568   3.0568   3.3980   3.3980
     4.2790   4.2790   6.9415   6.9415   7.3770   7.3770   8.5306   8.5306
     9.3813   9.3813   9.9959   9.9959  10.1481  10.1481  11.0377  11.0377
    12.3533  12.3533

          k = 0.2143 0.1237 0.0000 ( 15171 PWs)   bands (ev):

   -60.2064 -60.2064 -35.9904 -35.9904 -33.5479 -33.5479 -33.4499 -33.4499
   -12.8219 -12.8219 -11.8899 -11.8899  -4.3929  -4.3929  -3.0218  -3.0218
    -2.6486  -2.6486  -1.6677  -1.6677  -1.3400  -1.3400  -0.5628  -0.5628
     0.1061   0.1061   2.8031   2.8031   3.0879   3.0879   3.3522   3.3522
     4.2280   4.2280   6.8663   6.8663   7.3027   7.3027   8.4733   8.4733
     9.3025   9.3025  10.0910  10.0910  10.1765  10.1765  10.9912  10.9912
    12.3399  12.3399

          k = 0.2041 0.1178 0.0000 ( 15163 PWs)   bands (ev):

   -60.2075 -60.2075 -35.9870 -35.9870 -33.5440 -33.5440 -33.4452 -33.4452
   -12.8749 -12.8749 -11.9116 -11.9116  -4.4215  -4.4215  -2.9650  -2.9650
    -2.5683  -2.5683  -1.6151  -1.6151  -1.3908  -1.3908  -0.5312  -0.5312
     0.1609   0.1609   2.8179   2.8179   3.1200   3.1200   3.3112   3.3112
     4.1757   4.1757   6.7934   6.7934   7.2305   7.2305   8.4127   8.4127
     9.2021   9.2021  10.1780  10.1780  10.2195  10.2195  10.9485  10.9485
    12.3034  12.3034

          k = 0.1939 0.1119 0.0000 ( 15179 PWs)   bands (ev):

   -60.2087 -60.2087 -35.9838 -35.9838 -33.5405 -33.5405 -33.4403 -33.4403
   -12.9263 -12.9263 -11.9327 -11.9327  -4.4544  -4.4544  -2.9038  -2.9038
    -2.4879  -2.4879  -1.5632  -1.5632  -1.4396  -1.4396  -0.5029  -0.5029
     0.2143   0.2143   2.8384   2.8384   3.1527   3.1527   3.2762   3.2762
     4.1224   4.1224   6.7228   6.7228   7.1608   7.1608   8.3484   8.3484
     9.0882   9.0882  10.2498  10.2498  10.2745  10.2745  10.9112  10.9112
    12.2093  12.2093

          k = 0.1837 0.1060 0.0000 ( 15173 PWs)   bands (ev):

   -60.2098 -60.2098 -35.9806 -35.9806 -33.5374 -33.5374 -33.4351 -33.4351
   -12.9760 -12.9760 -11.9530 -11.9530  -4.4905  -4.4905  -2.8394  -2.8394
    -2.4075  -2.4075  -1.5207  -1.5207  -1.4775  -1.4775  -0.4785  -0.4785
     0.2653   0.2653   2.8645   2.8646   3.1838   3.1838   3.2493   3.2493
     4.0684   4.0684   6.6547   6.6547   7.0937   7.0937   8.2796   8.2796
     8.9677   8.9677  10.3087  10.3087  10.3306  10.3306  10.8798  10.8798
    12.1225  12.1225

          k = 0.1735 0.1002 0.0000 ( 15175 PWs)   bands (ev):

   -60.2108 -60.2108 -35.9775 -35.9775 -33.5347 -33.5347 -33.4298 -33.4298
   -13.0237 -13.0237 -11.9726 -11.9726  -4.5287  -4.5287  -2.7726  -2.7726
    -2.3272  -2.3272  -1.5441  -1.5441  -1.4482  -1.4482  -0.4586  -0.4586
     0.3135   0.3135   2.8963   2.8963   3.2015   3.2015   3.2426   3.2426
     4.0139   4.0139   6.5891   6.5891   7.0295   7.0295   8.2053   8.2053
     8.8464   8.8464  10.3551  10.3551  10.3815  10.3815  10.8517  10.8517
    12.0535  12.0535

          k = 0.1633 0.0943 0.0000 ( 15179 PWs)   bands (ev):

   -60.2119 -60.2119 -35.9746 -35.9746 -33.5322 -33.5322 -33.4243 -33.4243
   -13.0694 -13.0694 -11.9914 -11.9914  -4.5682  -4.5682  -2.7043  -2.7043
    -2.2470  -2.2470  -1.5874  -1.5874  -1.3976  -1.3976  -0.4439  -0.4439
     0.3583   0.3583   2.9334   2.9335   3.1942   3.1943   3.2676   3.2676
     3.9594   3.9594   6.5262   6.5262   6.9682   6.9682   8.1242   8.1242
     8.7292   8.7292  10.3739  10.3739  10.4400  10.4400  10.8202  10.8202
    12.0128  12.0128

          k = 0.1531 0.0884 0.0000 ( 15191 PWs)   bands (ev):

   -60.2129 -60.2129 -35.9717 -35.9717 -33.5301 -33.5301 -33.4189 -33.4189
   -13.1129 -13.1129 -12.0093 -12.0093  -4.6081  -4.6081  -2.6354  -2.6354
    -2.1670  -2.1670  -1.6304  -1.6304  -1.3461  -1.3461  -0.4347  -0.4347
     0.3993   0.3993   2.9755   2.9755   3.1856   3.1856   3.3007   3.3007
     3.9050   3.9050   6.4660   6.4660   6.9101   6.9101   8.0350   8.0350
     8.6201   8.6201  10.3712  10.3712  10.5029  10.5029  10.7765  10.7765
    12.0082  12.0082

          k = 0.1429 0.0825 0.0000 ( 15211 PWs)   bands (ev):

   -60.2138 -60.2138 -35.9690 -35.9690 -33.5282 -33.5282 -33.4135 -33.4135
   -13.1541 -13.1541 -12.0262 -12.0262  -4.6477  -4.6477  -2.5667  -2.5667
    -2.0874  -2.0874  -1.6716  -1.6716  -1.2952  -1.2952  -0.4316  -0.4316
     0.4365   0.4365   3.0217   3.0217   3.1824   3.1824   3.3349   3.3349
     3.8514   3.8514   6.4085   6.4085   6.8552   6.8553   7.9376   7.9376
     8.5218   8.5218  10.3543  10.3543  10.5668  10.5668  10.7161  10.7161
    12.0412  12.0412

          k = 0.1327 0.0766 0.0000 ( 15211 PWs)   bands (ev):

   -60.2147 -60.2147 -35.9665 -35.9665 -33.5266 -33.5266 -33.4082 -33.4082
   -13.1930 -13.1930 -12.0422 -12.0422  -4.6865  -4.6865  -2.4989  -2.4989
    -2.0083  -2.0083  -1.7105  -1.7105  -1.2455  -1.2455  -0.4348  -0.4348
     0.4696   0.4696   3.0708   3.0708   3.1860   3.1860   3.3690   3.3690
     3.7988   3.7988   6.3538   6.3538   6.8037   6.8037   7.8330   7.8330
     8.4354   8.4354  10.3279  10.3279  10.6089  10.6089  10.6621  10.6621
    12.1072  12.1072

          k = 0.1224 0.0707 0.0000 ( 15209 PWs)   bands (ev):

   -60.2156 -60.2156 -35.9641 -35.9641 -33.5252 -33.5252 -33.4030 -33.4030
   -13.2293 -13.2293 -12.0572 -12.0572  -4.7240  -4.7240  -2.4327  -2.4327
    -1.9302  -1.9302  -1.7464  -1.7464  -1.1973  -1.1973  -0.4442  -0.4442
     0.4989   0.4989   3.1205   3.1205   3.1976   3.1976   3.4022   3.4022
     3.7479   3.7479   6.3018   6.3018   6.7557   6.7557   7.7234   7.7234
     8.3604   8.3604  10.2947  10.2947  10.5368  10.5368  10.7123  10.7123
    12.0499  12.0499

          k = 0.1122 0.0648 0.0000 ( 15225 PWs)   bands (ev):

   -60.2164 -60.2164 -35.9619 -35.9619 -33.5239 -33.5239 -33.3981 -33.3981
   -13.2631 -13.2631 -12.0711 -12.0711  -4.7597  -4.7597  -2.3689  -2.3689
    -1.8554  -1.8554  -1.7769  -1.7769  -1.1512  -1.1512  -0.4601  -0.4601
     0.5244   0.5244   3.1651   3.1651   3.2215   3.2215   3.4341   3.4341
     3.6990   3.6990   6.2527   6.2527   6.7111   6.7111   7.6118   7.6118
     8.2956   8.2956  10.2544  10.2544  10.4452  10.4452  10.7802  10.7802
    11.9496  11.9496

          k = 0.1020 0.0589 0.0000 ( 15233 PWs)   bands (ev):

   -60.2171 -60.2171 -35.9598 -35.9598 -33.5228 -33.5228 -33.3934 -33.3934
   -13.2943 -13.2943 -12.0839 -12.0839  -4.7934  -4.7934  -2.3080  -2.3080
    -1.8243  -1.8243  -1.7616  -1.7616  -1.1073  -1.1073  -0.4821  -0.4821
     0.5464   0.5464   3.1977   3.1977   3.2627   3.2627   3.4642   3.4642
     3.6530   3.6530   6.2065   6.2065   6.6702   6.6702   7.5012   7.5012
     8.2395   8.2395  10.2025  10.2025  10.3609  10.3609  10.8497  10.8497
    11.8556  11.8556

          k = 0.0918 0.0530 0.0000 ( 15229 PWs)   bands (ev):

   -60.2178 -60.2178 -35.9579 -35.9579 -33.5219 -33.5219 -33.3891 -33.3891
   -13.3226 -13.3226 -12.0956 -12.0956  -4.8245  -4.8245  -2.2508  -2.2508
    -1.8474  -1.8474  -1.6899  -1.6899  -1.0662  -1.0662  -0.5099  -0.5099
     0.5650   0.5651   3.2233   3.2233   3.3140   3.3140   3.4917   3.4917
     3.6111   3.6111   6.1633   6.1633   6.6329   6.6329   7.3943   7.3943
     8.1908   8.1908  10.1333  10.1333  10.2957  10.2957  10.9193  10.9193
    11.7690  11.7690

          k = 0.0816 0.0471 0.0000 ( 15239 PWs)   bands (ev):

   -60.2184 -60.2184 -35.9562 -35.9562 -33.5211 -33.5211 -33.3851 -33.3851
   -13.3482 -13.3482 -12.1061 -12.1061  -4.8531  -4.8531  -2.1980  -2.1980
    -1.8721  -1.8721  -1.6144  -1.6144  -1.0283  -1.0283  -0.5432  -0.5432
     0.5808   0.5808   3.2474   3.2474   3.3671   3.3671   3.5135   3.5135
     3.5765   3.5765   6.1231   6.1231   6.5994   6.5994   7.2935   7.2935
     8.1486   8.1486  10.0504  10.0504  10.2500  10.2500  10.9884  10.9884
    11.6902  11.6902

          k = 0.0714 0.0412 0.0000 ( 15235 PWs)   bands (ev):

   -60.2190 -60.2190 -35.9547 -35.9547 -33.5204 -33.5204 -33.3814 -33.3814
   -13.3710 -13.3710 -12.1155 -12.1155  -4.8787  -4.8787  -2.1501  -2.1501
    -1.8943  -1.8943  -1.5393  -1.5393  -0.9939  -0.9939  -0.5814  -0.5814
     0.5938   0.5938   3.2710   3.2710   3.4175   3.4175   3.5166   3.5166
     3.5639   3.5639   6.0862   6.0862   6.5697   6.5697   7.2005   7.2005
     8.1122   8.1122   9.9645   9.9645  10.2164  10.2164  11.0561  11.0561
    11.6198  11.6198

          k = 0.0612 0.0353 0.0000 ( 15241 PWs)   bands (ev):

   -60.2195 -60.2195 -35.9534 -35.9534 -33.5198 -33.5198 -33.3783 -33.3783
   -13.3907 -13.3907 -12.1237 -12.1237  -4.9012  -4.9012  -2.1080  -2.1080
    -1.9133  -1.9133  -1.4653  -1.4653  -0.9635  -0.9635  -0.6237  -0.6237
     0.6045   0.6045   3.2933   3.2933   3.4556   3.4556   3.5056   3.5056
     3.5767   3.5767   6.0528   6.0528   6.5438   6.5438   7.1171   7.1171
     8.0810   8.0810   9.8827   9.8827  10.1900  10.1900  11.1215  11.1215
    11.5584  11.5584

          k = 0.0510 0.0295 0.0000 ( 15231 PWs)   bands (ev):

   -60.2199 -60.2199 -35.9523 -35.9523 -33.5193 -33.5193 -33.3755 -33.3755
   -13.4076 -13.4076 -12.1306 -12.1306  -4.9205  -4.9205  -2.0724  -2.0724
    -1.9286  -1.9286  -1.3931  -1.3931  -0.9377  -0.9377  -0.6691  -0.6691
     0.6130   0.6130   3.3132   3.3132   3.4547   3.4547   3.5277   3.5277
     3.5933   3.5933   6.0234   6.0234   6.5217   6.5217   7.0446   7.0446
     8.0550   8.0550   9.8092   9.8092  10.1688  10.1688  11.1836  11.1836
    11.5063  11.5063

          k = 0.0408 0.0236 0.0000 ( 15233 PWs)   bands (ev):

   -60.2202 -60.2202 -35.9514 -35.9514 -33.5190 -33.5190 -33.3732 -33.3732
   -13.4214 -13.4214 -12.1363 -12.1363  -4.9365  -4.9365  -2.0443  -2.0443
    -1.9395  -1.9395  -1.3235  -1.3235  -0.9172  -0.9172  -0.7162  -0.7162
     0.6197   0.6197   3.3288   3.3288   3.4399   3.4399   3.5627   3.5627
     3.6081   3.6081   5.9982   5.9982   6.5037   6.5037   6.9840   6.9840
     8.0338   8.0338   9.7464   9.7464  10.1518  10.1518  11.2404  11.2404
    11.4644  11.4644

          k = 0.0306 0.0177 0.0000 ( 15221 PWs)   bands (ev):

   -60.2205 -60.2205 -35.9507 -35.9507 -33.5187 -33.5187 -33.3714 -33.3714
   -13.4322 -13.4322 -12.1407 -12.1407  -4.9490  -4.9490  -2.0248  -2.0248
    -1.9454  -1.9454  -1.2580  -1.2580  -0.9034  -0.9034  -0.7620  -0.7620
     0.6246   0.6246   3.3388   3.3388   3.4291   3.4291   3.5933   3.5933
     3.6202   3.6202   5.9779   5.9779   6.4896   6.4896   6.9361   6.9361
     8.0174   8.0174   9.6961   9.6961  10.1388  10.1388  11.2889  11.2889
    11.4340  11.4340

          k = 0.0204 0.0118 0.0000 ( 15217 PWs)   bands (ev):

   -60.2207 -60.2207 -35.9501 -35.9501 -33.5185 -33.5185 -33.3702 -33.3702
   -13.4399 -13.4399 -12.1439 -12.1439  -4.9580  -4.9580  -2.0139  -2.0139
    -1.9463  -1.9463  -1.1996  -1.1996  -0.8992  -0.8992  -0.8006  -0.8006
     0.6281   0.6281   3.3432   3.3432   3.4241   3.4241   3.6164   3.6164
     3.6290   3.6290   5.9630   5.9630   6.4795   6.4795   6.9014   6.9014
     8.0056   8.0056   9.6593   9.6593  10.1296  10.1296  11.3237  11.3237
    11.4177  11.4177

          k = 0.0102 0.0059 0.0000 ( 15201 PWs)   bands (ev):

   -60.2208 -60.2208 -35.9498 -35.9498 -33.5183 -33.5183 -33.3694 -33.3694
   -13.4446 -13.4446 -12.1458 -12.1458  -4.9634  -4.9634  -2.0093  -2.0093
    -1.9448  -1.9448  -1.1550  -1.1550  -0.9068  -0.9068  -0.8232  -0.8232
     0.6301   0.6301   3.3440   3.3440   3.4230   3.4230   3.6307   3.6307
     3.6343   3.6343   5.9538   5.9538   6.4734   6.4734   6.8805   6.8805
     7.9986   7.9986   9.6369   9.6369  10.1241  10.1241  11.3396  11.3396
    11.4164  11.4164

          k = 0.0000 0.0000 0.0000 ( 15211 PWs)   bands (ev):

   -60.2208 -60.2208 -35.9497 -35.9497 -33.5183 -33.5183 -33.3691 -33.3691
   -13.4461 -13.4461 -12.1465 -12.1465  -4.9652  -4.9652  -2.0082  -2.0082
    -1.9438  -1.9438  -1.1371  -1.1371  -0.9138  -0.9138  -0.8294  -0.8294
     0.6307   0.6307   3.3439   3.3439   3.4230   3.4230   3.6357   3.6357
     3.6360   3.6360   5.9507   5.9507   6.4714   6.4714   6.8735   6.8735
     7.9963   7.9963   9.6294   9.6294  10.1223  10.1223  11.3427  11.3427
    11.4189  11.4189

     Writing all to output data dir ./MoS2.save/
 
     init_run     :      0.11s CPU      0.17s WALL (       1 calls)
     electrons    :     80.86s CPU     81.80s WALL (       1 calls)

     Called by init_run:
     wfcinit      :      0.00s CPU      0.01s WALL (       1 calls)
     wfcinit:wfcr :      1.34s CPU      1.36s WALL (      64 calls)
     potinit      :      0.01s CPU      0.04s WALL (       1 calls)
     hinit0       :      0.07s CPU      0.10s WALL (       1 calls)

     Called by electrons:
     c_bands      :     80.86s CPU     81.80s WALL (       1 calls)
     v_of_rho     :      0.01s CPU      0.01s WALL (       1 calls)
     v_h          :      0.00s CPU      0.00s WALL (       1 calls)
     v_xc         :      0.00s CPU      0.00s WALL (       1 calls)

     Called by c_bands:
     init_us_2    :      0.01s CPU      0.01s WALL (      64 calls)
     init_us_2:cp :      0.01s CPU      0.01s WALL (      64 calls)
     cegterg      :     76.83s CPU     77.75s WALL (     291 calls)

     Called by sum_band:

     Called by *egterg:
     cdiaghg      :     22.46s CPU     22.55s WALL (    5429 calls)
     cegterg:over :      8.41s CPU      8.51s WALL (    5365 calls)
     cegterg:upda :      4.40s CPU      4.41s WALL (    5365 calls)
     cegterg:last :      5.27s CPU      5.28s WALL (    2792 calls)
     cdiaghg:chol :      1.04s CPU      1.05s WALL (    5429 calls)
     cdiaghg:inve :      0.16s CPU      0.16s WALL (    5429 calls)
     cdiaghg:para :      1.60s CPU      1.61s WALL (   10858 calls)
     h_psi        :     36.33s CPU     37.07s WALL (    5720 calls)
     g_psi        :      0.16s CPU      0.16s WALL (    5365 calls)

     Called by h_psi:
     h_psi:calbec :      2.27s CPU      2.33s WALL (    5720 calls)
     vloc_psi     :     30.69s CPU     31.29s WALL (    5720 calls)
     add_vuspsi   :      3.17s CPU      3.25s WALL (    5720 calls)

     General routines
     calbec       :      2.25s CPU      2.32s WALL (    5720 calls)
     fft          :      0.06s CPU      0.08s WALL (      14 calls)
     fftw         :     28.08s CPU     28.63s WALL (  554764 calls)
 
     Parallel routines
 
     PWSCF        :   1m25.66s CPU   1m31.80s WALL

 
   This run was terminated on:  18:17: 5   6Jul2023            

=------------------------------------------------------------------------------=
   JOB DONE.
=------------------------------------------------------------------------------=
