 DBCSR| CPU Multiplication driver                                           XSMM (U)
 DBCSR| Multrec recursion limit                                              512 (U)
 DBCSR| Multiplication stack size                                           1000 (D)
 DBCSR| Maximum elements for images                                    UNLIMITED (U)
 DBCSR| Multiplicative factor virtual images                                   1 (U)
 DBCSR| Use multiplication densification                                       T (D)
 DBCSR| Multiplication size stacks                                             3 (U)
 DBCSR| Use memory pool for CPU allocation                                     F (U)
 DBCSR| Number of 3D layers                                               SINGLE (U)
 DBCSR| Use MPI memory allocation                                              F (U)
 DBCSR| Use RMA algorithm                                                      F (U)
 DBCSR| Use Communication thread                                               T (U)
 DBCSR| Communication thread load                                             60 (D)
 DBCSR| MPI: My process id                                                     0
 DBCSR| MPI: Number of processes                                             192
 DBCSR| OMP: Current number of threads                                         8
 DBCSR| OMP: Max number of threads                                             8
 DBCSR| Split modifier for TAS multiplication algorithm                  1.0E+00 (U)


  **** **** ******  **  PROGRAM STARTED AT               2024-07-16 05:41:45.428
 ***** ** ***  *** **   PROGRAM STARTED ON                n2lcn0106.ab2021.local
 **    ****   ******    PROGRAM STARTED BY                              eprop2d1
 ***** **    ** ** **   PROGRAM PROCESS ID                               3384007
  **** **  *******  **  PROGRAM STARTED IN /scratch/hpc-prf-metdyn/eprop2d1_Jan/
                                           25_MoS2_MoSe2_WS2_WSe2_UZH_protocol/0
                                           2_MoSe2/113_as_110_36x36_kpoints_reg_
                                           RI_1E-2_trunc_7.0______________

 CP2K| version string:                 CP2K version 2024.1 (Development Version)
 CP2K| source code revision number:                                  git:182b4bb
 CP2K| cp2kflags: omp libint fftw3 libxc libgrpp elpa parallel mpi_f08 scalapack
 CP2K|             cosma xsmm plumed2 spglib sirius libvori libbqb libvdwxc hdf5
 CP2K| is freely available from                            https://www.cp2k.org/
 CP2K| Program compiled at                         Thu Jul 11 20:15:33 CEST 2024
 CP2K| Program compiled on                                              n2login1
 CP2K| Program compiled for                                                local
 CP2K| Data directory path    /opt/software/pc2/EB-SW/software/CP2K/2024.1-foss-
 CP2K| Input file name                                                    GW.inp

 GLOBAL| Force Environment number                                              1
 GLOBAL| Basis set file name                                        BASIS_MOLOPT
 GLOBAL| Potential file name                                  GTH_SOC_POTENTIALS
 GLOBAL| MM Potential file name                                     MM_POTENTIAL
 GLOBAL| Coordinate file name                                      __STD_INPUT__
 GLOBAL| Method name                                                        CP2K
 GLOBAL| Project name                                                       MoS2
 GLOBAL| Run type                                                         ENERGY
 GLOBAL| FFT library                                                       FFTW3
 GLOBAL| Diagonalization library                                            ELPA
 GLOBAL| DGEMM library                                                      BLAS
 GLOBAL| Minimum number of eigenvectors for ELPA usage                        16
 GLOBAL| Orthonormality check for eigenvectors                          DISABLED
 GLOBAL| Matrix multiplication library                                     COSMA
 GLOBAL| All-to-all communication in single precision                          F
 GLOBAL| FFTs using library dependent lengths                                  F
 GLOBAL| Grid backend                                                       AUTO
 GLOBAL| Global print level                                               MEDIUM
 GLOBAL| MPI I/O enabled                                                       T
 GLOBAL| Total number of message passing processes                           192
 GLOBAL| Number of threads for this process                                    8
 GLOBAL| This output is from process                                           0
 GLOBAL| Stack size for threads created by OpenMP (OMP_STACKSIZE)        default
 GLOBAL| CPU model name                          AMD EPYC 7763 64-Core Processor
 GLOBAL| CPUID                                                              1002
 GLOBAL| Compiled for CPUID                                                    0

 *** HINT in environment.F:922 :: The compiler target flags (generic) used ***
 *** to build this binary cannot exploit all extensions of this CPU model  ***
 *** (x86_avx2). Consider compiler target flags as part of FCFLAGS and     ***
 *** CFLAGS (ARCH file).                                                   ***


 MEMORY| system memory details [Kb]
 MEMORY|                        rank 0           min           max       average
 MEMORY| MemTotal           1056622248    1056622244    1056622248    1056622246
 MEMORY| MemFree            1043872720    1040050428    1045115732    1043528117
 MEMORY| Buffers                 36768         36768        275972        193921
 MEMORY| Cached                4047736       3692680       7593644       4681506
 MEMORY| Slab                  1538140       1054544       1842276       1453944
 MEMORY| SReclaimable           182164        165300        314320        223423
 MEMORY| MemLikelyFree      1048139388    1048096568    1049221168    1048626968


 *** Fundamental physical constants (SI units) ***

 *** Literature: B. J. Mohr and B. N. Taylor,
 ***             CODATA recommended values of the fundamental physical
 ***             constants: 2006, Web Version 5.1
 ***             http://physics.nist.gov/constants

 Speed of light in vacuum [m/s]                             2.99792458000000E+08
 Magnetic constant or permeability of vacuum [N/A**2]       1.25663706143592E-06
 Electric constant or permittivity of vacuum [F/m]          8.85418781762039E-12
 Planck constant (h) [J*s]                                  6.62606896000000E-34
 Planck constant (h-bar) [J*s]                              1.05457162825177E-34
 Elementary charge [C]                                      1.60217648700000E-19
 Electron mass [kg]                                         9.10938215000000E-31
 Electron g factor [ ]                                     -2.00231930436220E+00
 Proton mass [kg]                                           1.67262163700000E-27
 Fine-structure constant                                    7.29735253760000E-03
 Rydberg constant [1/m]                                     1.09737315685270E+07
 Avogadro constant [1/mol]                                  6.02214179000000E+23
 Boltzmann constant [J/K]                                   1.38065040000000E-23
 Atomic mass unit [kg]                                      1.66053878200000E-27
 Bohr radius [m]                                            5.29177208590000E-11

 *** Conversion factors ***

 [u] -> [a.u.]                                              1.82288848426455E+03
 [Angstrom] -> [Bohr] = [a.u.]                              1.88972613288564E+00
 [a.u.] = [Bohr] -> [Angstrom]                              5.29177208590000E-01
 [a.u.] -> [s]                                              2.41888432650478E-17
 [a.u.] -> [fs]                                             2.41888432650478E-02
 [a.u.] -> [J]                                              4.35974393937059E-18
 [a.u.] -> [N]                                              8.23872205491840E-08
 [a.u.] -> [K]                                              3.15774647902944E+05
 [a.u.] -> [kJ/mol]                                         2.62549961709828E+03
 [a.u.] -> [kcal/mol]                                       6.27509468713739E+02
 [a.u.] -> [Pa]                                             2.94210107994716E+13
 [a.u.] -> [bar]                                            2.94210107994716E+08
 [a.u.] -> [atm]                                            2.90362800883016E+08
 [a.u.] -> [eV]                                             2.72113838565563E+01
 [a.u.] -> [Hz]                                             6.57968392072181E+15
 [a.u.] -> [1/cm] (wave numbers)                            2.19474631370540E+05
 [a.u./Bohr**2] -> [1/cm]                                   5.14048714338585E+03
 

 CELL_TOP| Volume [angstrom^3]:                                       143.175000
 CELL_TOP| Vector a [angstrom     3.320     0.000     0.000   |a| =     3.320000
 CELL_TOP| Vector b [angstrom    -1.660     2.875     0.000   |b| =     3.319823
 CELL_TOP| Vector c [angstrom     0.000     0.000    15.000   |c| =    15.000000
 CELL_TOP| Angle (b,c), alpha [degree]:                                90.000000
 CELL_TOP| Angle (a,c), beta  [degree]:                                90.000000
 CELL_TOP| Angle (a,b), gamma [degree]:                               120.001763
 CELL_TOP| Numerically orthorhombic:                                          NO
 CELL_TOP| Periodicity                                                        XY

 GENERATE|  Preliminary Number of Bonds generated:                             0
 GENERATE|  Achieved consistency in connectivity generation.

 CELL| Volume [angstrom^3]:                                           143.175000
 CELL| Vector a [angstrom]:       3.320     0.000     0.000   |a| =     3.320000
 CELL| Vector b [angstrom]:      -1.660     2.875     0.000   |b| =     3.319823
 CELL| Vector c [angstrom]:       0.000     0.000    15.000   |c| =    15.000000
 CELL| Angle (b,c), alpha [degree]:                                    90.000000
 CELL| Angle (a,c), beta  [degree]:                                    90.000000
 CELL| Angle (a,b), gamma [degree]:                                   120.001763
 CELL| Numerically orthorhombic:                                              NO
 CELL| Periodicity                                                            XY

 CELL_REF| Volume [angstrom^3]:                                       143.175000
 CELL_REF| Vector a [angstrom     3.320     0.000     0.000   |a| =     3.320000
 CELL_REF| Vector b [angstrom    -1.660     2.875     0.000   |b| =     3.319823
 CELL_REF| Vector c [angstrom     0.000     0.000    15.000   |c| =    15.000000
 CELL_REF| Angle (b,c), alpha [degree]:                                90.000000
 CELL_REF| Angle (a,c), beta  [degree]:                                90.000000
 CELL_REF| Angle (a,b), gamma [degree]:                               120.001763
 CELL_REF| Numerically orthorhombic:                                          NO
 CELL_REF| Periodicity                                                        XY

 *******************************************************************************
                                    Kpoints
 *******************************************************************************
 BRILLOUIN| K-point scheme                                        Monkhorst-Pack
 BRILLOUIN| K-Point grid                                            36   36    1
 BRILLOUIN| Accuracy in Symmetry determination                      0.100000E-05
 BRILLOUIN| K-Point point group symmetrization                               OFF
 BRILLOUIN| Wavefunction type                                            COMPLEX
 BRILLOUIN| List of Kpoints [2 Pi/Bohr]                                      648
 BRILLOUIN| Number           Weight            X              Y              Z
 BRILLOUIN|     1           0.00154       -0.48611       -0.48611        0.00000
 BRILLOUIN|     2           0.00154       -0.48611       -0.45833        0.00000
 BRILLOUIN|     3           0.00154       -0.48611       -0.43056        0.00000
 BRILLOUIN|     4           0.00154       -0.48611       -0.40278        0.00000
 BRILLOUIN|     5           0.00154       -0.48611       -0.37500        0.00000
 BRILLOUIN|     6           0.00154       -0.48611       -0.34722        0.00000
 BRILLOUIN|     7           0.00154       -0.48611       -0.31944        0.00000
 BRILLOUIN|     8           0.00154       -0.48611       -0.29167        0.00000
 BRILLOUIN|     9           0.00154       -0.48611       -0.26389        0.00000
 BRILLOUIN|    10           0.00154       -0.48611       -0.23611        0.00000
 BRILLOUIN|    11           0.00154       -0.48611       -0.20833        0.00000
 BRILLOUIN|    12           0.00154       -0.48611       -0.18056        0.00000
 BRILLOUIN|    13           0.00154       -0.48611       -0.15278        0.00000
 BRILLOUIN|    14           0.00154       -0.48611       -0.12500        0.00000
 BRILLOUIN|    15           0.00154       -0.48611       -0.09722        0.00000
 BRILLOUIN|    16           0.00154       -0.48611       -0.06944        0.00000
 BRILLOUIN|    17           0.00154       -0.48611       -0.04167        0.00000
 BRILLOUIN|    18           0.00154       -0.48611       -0.01389        0.00000
 BRILLOUIN|    19           0.00154       -0.48611        0.01389        0.00000
 BRILLOUIN|    20           0.00154       -0.48611        0.04167        0.00000
 BRILLOUIN|    21           0.00154       -0.48611        0.06944        0.00000
 BRILLOUIN|    22           0.00154       -0.48611        0.09722        0.00000
 BRILLOUIN|    23           0.00154       -0.48611        0.12500        0.00000
 BRILLOUIN|    24           0.00154       -0.48611        0.15278        0.00000
 BRILLOUIN|    25           0.00154       -0.48611        0.18056        0.00000
 BRILLOUIN|    26           0.00154       -0.48611        0.20833        0.00000
 BRILLOUIN|    27           0.00154       -0.48611        0.23611        0.00000
 BRILLOUIN|    28           0.00154       -0.48611        0.26389        0.00000
 BRILLOUIN|    29           0.00154       -0.48611        0.29167        0.00000
 BRILLOUIN|    30           0.00154       -0.48611        0.31944        0.00000
 BRILLOUIN|    31           0.00154       -0.48611        0.34722        0.00000
 BRILLOUIN|    32           0.00154       -0.48611        0.37500        0.00000
 BRILLOUIN|    33           0.00154       -0.48611        0.40278        0.00000
 BRILLOUIN|    34           0.00154       -0.48611        0.43056        0.00000
 BRILLOUIN|    35           0.00154       -0.48611        0.45833        0.00000
 BRILLOUIN|    36           0.00154       -0.48611        0.48611        0.00000
 BRILLOUIN|    37           0.00154       -0.45833       -0.48611        0.00000
 BRILLOUIN|    38           0.00154       -0.45833       -0.45833        0.00000
 BRILLOUIN|    39           0.00154       -0.45833       -0.43056        0.00000
 BRILLOUIN|    40           0.00154       -0.45833       -0.40278        0.00000
 BRILLOUIN|    41           0.00154       -0.45833       -0.37500        0.00000
 BRILLOUIN|    42           0.00154       -0.45833       -0.34722        0.00000
 BRILLOUIN|    43           0.00154       -0.45833       -0.31944        0.00000
 BRILLOUIN|    44           0.00154       -0.45833       -0.29167        0.00000
 BRILLOUIN|    45           0.00154       -0.45833       -0.26389        0.00000
 BRILLOUIN|    46           0.00154       -0.45833       -0.23611        0.00000
 BRILLOUIN|    47           0.00154       -0.45833       -0.20833        0.00000
 BRILLOUIN|    48           0.00154       -0.45833       -0.18056        0.00000
 BRILLOUIN|    49           0.00154       -0.45833       -0.15278        0.00000
 BRILLOUIN|    50           0.00154       -0.45833       -0.12500        0.00000
 BRILLOUIN|    51           0.00154       -0.45833       -0.09722        0.00000
 BRILLOUIN|    52           0.00154       -0.45833       -0.06944        0.00000
 BRILLOUIN|    53           0.00154       -0.45833       -0.04167        0.00000
 BRILLOUIN|    54           0.00154       -0.45833       -0.01389        0.00000
 BRILLOUIN|    55           0.00154       -0.45833        0.01389        0.00000
 BRILLOUIN|    56           0.00154       -0.45833        0.04167        0.00000
 BRILLOUIN|    57           0.00154       -0.45833        0.06944        0.00000
 BRILLOUIN|    58           0.00154       -0.45833        0.09722        0.00000
 BRILLOUIN|    59           0.00154       -0.45833        0.12500        0.00000
 BRILLOUIN|    60           0.00154       -0.45833        0.15278        0.00000
 BRILLOUIN|    61           0.00154       -0.45833        0.18056        0.00000
 BRILLOUIN|    62           0.00154       -0.45833        0.20833        0.00000
 BRILLOUIN|    63           0.00154       -0.45833        0.23611        0.00000
 BRILLOUIN|    64           0.00154       -0.45833        0.26389        0.00000
 BRILLOUIN|    65           0.00154       -0.45833        0.29167        0.00000
 BRILLOUIN|    66           0.00154       -0.45833        0.31944        0.00000
 BRILLOUIN|    67           0.00154       -0.45833        0.34722        0.00000
 BRILLOUIN|    68           0.00154       -0.45833        0.37500        0.00000
 BRILLOUIN|    69           0.00154       -0.45833        0.40278        0.00000
 BRILLOUIN|    70           0.00154       -0.45833        0.43056        0.00000
 BRILLOUIN|    71           0.00154       -0.45833        0.45833        0.00000
 BRILLOUIN|    72           0.00154       -0.45833        0.48611        0.00000
 BRILLOUIN|    73           0.00154       -0.43056       -0.48611        0.00000
 BRILLOUIN|    74           0.00154       -0.43056       -0.45833        0.00000
 BRILLOUIN|    75           0.00154       -0.43056       -0.43056        0.00000
 BRILLOUIN|    76           0.00154       -0.43056       -0.40278        0.00000
 BRILLOUIN|    77           0.00154       -0.43056       -0.37500        0.00000
 BRILLOUIN|    78           0.00154       -0.43056       -0.34722        0.00000
 BRILLOUIN|    79           0.00154       -0.43056       -0.31944        0.00000
 BRILLOUIN|    80           0.00154       -0.43056       -0.29167        0.00000
 BRILLOUIN|    81           0.00154       -0.43056       -0.26389        0.00000
 BRILLOUIN|    82           0.00154       -0.43056       -0.23611        0.00000
 BRILLOUIN|    83           0.00154       -0.43056       -0.20833        0.00000
 BRILLOUIN|    84           0.00154       -0.43056       -0.18056        0.00000
 BRILLOUIN|    85           0.00154       -0.43056       -0.15278        0.00000
 BRILLOUIN|    86           0.00154       -0.43056       -0.12500        0.00000
 BRILLOUIN|    87           0.00154       -0.43056       -0.09722        0.00000
 BRILLOUIN|    88           0.00154       -0.43056       -0.06944        0.00000
 BRILLOUIN|    89           0.00154       -0.43056       -0.04167        0.00000
 BRILLOUIN|    90           0.00154       -0.43056       -0.01389        0.00000
 BRILLOUIN|    91           0.00154       -0.43056        0.01389        0.00000
 BRILLOUIN|    92           0.00154       -0.43056        0.04167        0.00000
 BRILLOUIN|    93           0.00154       -0.43056        0.06944        0.00000
 BRILLOUIN|    94           0.00154       -0.43056        0.09722        0.00000
 BRILLOUIN|    95           0.00154       -0.43056        0.12500        0.00000
 BRILLOUIN|    96           0.00154       -0.43056        0.15278        0.00000
 BRILLOUIN|    97           0.00154       -0.43056        0.18056        0.00000
 BRILLOUIN|    98           0.00154       -0.43056        0.20833        0.00000
 BRILLOUIN|    99           0.00154       -0.43056        0.23611        0.00000
 BRILLOUIN|   100           0.00154       -0.43056        0.26389        0.00000
 BRILLOUIN|   101           0.00154       -0.43056        0.29167        0.00000
 BRILLOUIN|   102           0.00154       -0.43056        0.31944        0.00000
 BRILLOUIN|   103           0.00154       -0.43056        0.34722        0.00000
 BRILLOUIN|   104           0.00154       -0.43056        0.37500        0.00000
 BRILLOUIN|   105           0.00154       -0.43056        0.40278        0.00000
 BRILLOUIN|   106           0.00154       -0.43056        0.43056        0.00000
 BRILLOUIN|   107           0.00154       -0.43056        0.45833        0.00000
 BRILLOUIN|   108           0.00154       -0.43056        0.48611        0.00000
 BRILLOUIN|   109           0.00154       -0.40278       -0.48611        0.00000
 BRILLOUIN|   110           0.00154       -0.40278       -0.45833        0.00000
 BRILLOUIN|   111           0.00154       -0.40278       -0.43056        0.00000
 BRILLOUIN|   112           0.00154       -0.40278       -0.40278        0.00000
 BRILLOUIN|   113           0.00154       -0.40278       -0.37500        0.00000
 BRILLOUIN|   114           0.00154       -0.40278       -0.34722        0.00000
 BRILLOUIN|   115           0.00154       -0.40278       -0.31944        0.00000
 BRILLOUIN|   116           0.00154       -0.40278       -0.29167        0.00000
 BRILLOUIN|   117           0.00154       -0.40278       -0.26389        0.00000
 BRILLOUIN|   118           0.00154       -0.40278       -0.23611        0.00000
 BRILLOUIN|   119           0.00154       -0.40278       -0.20833        0.00000
 BRILLOUIN|   120           0.00154       -0.40278       -0.18056        0.00000
 BRILLOUIN|   121           0.00154       -0.40278       -0.15278        0.00000
 BRILLOUIN|   122           0.00154       -0.40278       -0.12500        0.00000
 BRILLOUIN|   123           0.00154       -0.40278       -0.09722        0.00000
 BRILLOUIN|   124           0.00154       -0.40278       -0.06944        0.00000
 BRILLOUIN|   125           0.00154       -0.40278       -0.04167        0.00000
 BRILLOUIN|   126           0.00154       -0.40278       -0.01389        0.00000
 BRILLOUIN|   127           0.00154       -0.40278        0.01389        0.00000
 BRILLOUIN|   128           0.00154       -0.40278        0.04167        0.00000
 BRILLOUIN|   129           0.00154       -0.40278        0.06944        0.00000
 BRILLOUIN|   130           0.00154       -0.40278        0.09722        0.00000
 BRILLOUIN|   131           0.00154       -0.40278        0.12500        0.00000
 BRILLOUIN|   132           0.00154       -0.40278        0.15278        0.00000
 BRILLOUIN|   133           0.00154       -0.40278        0.18056        0.00000
 BRILLOUIN|   134           0.00154       -0.40278        0.20833        0.00000
 BRILLOUIN|   135           0.00154       -0.40278        0.23611        0.00000
 BRILLOUIN|   136           0.00154       -0.40278        0.26389        0.00000
 BRILLOUIN|   137           0.00154       -0.40278        0.29167        0.00000
 BRILLOUIN|   138           0.00154       -0.40278        0.31944        0.00000
 BRILLOUIN|   139           0.00154       -0.40278        0.34722        0.00000
 BRILLOUIN|   140           0.00154       -0.40278        0.37500        0.00000
 BRILLOUIN|   141           0.00154       -0.40278        0.40278        0.00000
 BRILLOUIN|   142           0.00154       -0.40278        0.43056        0.00000
 BRILLOUIN|   143           0.00154       -0.40278        0.45833        0.00000
 BRILLOUIN|   144           0.00154       -0.40278        0.48611        0.00000
 BRILLOUIN|   145           0.00154       -0.37500       -0.48611        0.00000
 BRILLOUIN|   146           0.00154       -0.37500       -0.45833        0.00000
 BRILLOUIN|   147           0.00154       -0.37500       -0.43056        0.00000
 BRILLOUIN|   148           0.00154       -0.37500       -0.40278        0.00000
 BRILLOUIN|   149           0.00154       -0.37500       -0.37500        0.00000
 BRILLOUIN|   150           0.00154       -0.37500       -0.34722        0.00000
 BRILLOUIN|   151           0.00154       -0.37500       -0.31944        0.00000
 BRILLOUIN|   152           0.00154       -0.37500       -0.29167        0.00000
 BRILLOUIN|   153           0.00154       -0.37500       -0.26389        0.00000
 BRILLOUIN|   154           0.00154       -0.37500       -0.23611        0.00000
 BRILLOUIN|   155           0.00154       -0.37500       -0.20833        0.00000
 BRILLOUIN|   156           0.00154       -0.37500       -0.18056        0.00000
 BRILLOUIN|   157           0.00154       -0.37500       -0.15278        0.00000
 BRILLOUIN|   158           0.00154       -0.37500       -0.12500        0.00000
 BRILLOUIN|   159           0.00154       -0.37500       -0.09722        0.00000
 BRILLOUIN|   160           0.00154       -0.37500       -0.06944        0.00000
 BRILLOUIN|   161           0.00154       -0.37500       -0.04167        0.00000
 BRILLOUIN|   162           0.00154       -0.37500       -0.01389        0.00000
 BRILLOUIN|   163           0.00154       -0.37500        0.01389        0.00000
 BRILLOUIN|   164           0.00154       -0.37500        0.04167        0.00000
 BRILLOUIN|   165           0.00154       -0.37500        0.06944        0.00000
 BRILLOUIN|   166           0.00154       -0.37500        0.09722        0.00000
 BRILLOUIN|   167           0.00154       -0.37500        0.12500        0.00000
 BRILLOUIN|   168           0.00154       -0.37500        0.15278        0.00000
 BRILLOUIN|   169           0.00154       -0.37500        0.18056        0.00000
 BRILLOUIN|   170           0.00154       -0.37500        0.20833        0.00000
 BRILLOUIN|   171           0.00154       -0.37500        0.23611        0.00000
 BRILLOUIN|   172           0.00154       -0.37500        0.26389        0.00000
 BRILLOUIN|   173           0.00154       -0.37500        0.29167        0.00000
 BRILLOUIN|   174           0.00154       -0.37500        0.31944        0.00000
 BRILLOUIN|   175           0.00154       -0.37500        0.34722        0.00000
 BRILLOUIN|   176           0.00154       -0.37500        0.37500        0.00000
 BRILLOUIN|   177           0.00154       -0.37500        0.40278        0.00000
 BRILLOUIN|   178           0.00154       -0.37500        0.43056        0.00000
 BRILLOUIN|   179           0.00154       -0.37500        0.45833        0.00000
 BRILLOUIN|   180           0.00154       -0.37500        0.48611        0.00000
 BRILLOUIN|   181           0.00154       -0.34722       -0.48611        0.00000
 BRILLOUIN|   182           0.00154       -0.34722       -0.45833        0.00000
 BRILLOUIN|   183           0.00154       -0.34722       -0.43056        0.00000
 BRILLOUIN|   184           0.00154       -0.34722       -0.40278        0.00000
 BRILLOUIN|   185           0.00154       -0.34722       -0.37500        0.00000
 BRILLOUIN|   186           0.00154       -0.34722       -0.34722        0.00000
 BRILLOUIN|   187           0.00154       -0.34722       -0.31944        0.00000
 BRILLOUIN|   188           0.00154       -0.34722       -0.29167        0.00000
 BRILLOUIN|   189           0.00154       -0.34722       -0.26389        0.00000
 BRILLOUIN|   190           0.00154       -0.34722       -0.23611        0.00000
 BRILLOUIN|   191           0.00154       -0.34722       -0.20833        0.00000
 BRILLOUIN|   192           0.00154       -0.34722       -0.18056        0.00000
 BRILLOUIN|   193           0.00154       -0.34722       -0.15278        0.00000
 BRILLOUIN|   194           0.00154       -0.34722       -0.12500        0.00000
 BRILLOUIN|   195           0.00154       -0.34722       -0.09722        0.00000
 BRILLOUIN|   196           0.00154       -0.34722       -0.06944        0.00000
 BRILLOUIN|   197           0.00154       -0.34722       -0.04167        0.00000
 BRILLOUIN|   198           0.00154       -0.34722       -0.01389        0.00000
 BRILLOUIN|   199           0.00154       -0.34722        0.01389        0.00000
 BRILLOUIN|   200           0.00154       -0.34722        0.04167        0.00000
 BRILLOUIN|   201           0.00154       -0.34722        0.06944        0.00000
 BRILLOUIN|   202           0.00154       -0.34722        0.09722        0.00000
 BRILLOUIN|   203           0.00154       -0.34722        0.12500        0.00000
 BRILLOUIN|   204           0.00154       -0.34722        0.15278        0.00000
 BRILLOUIN|   205           0.00154       -0.34722        0.18056        0.00000
 BRILLOUIN|   206           0.00154       -0.34722        0.20833        0.00000
 BRILLOUIN|   207           0.00154       -0.34722        0.23611        0.00000
 BRILLOUIN|   208           0.00154       -0.34722        0.26389        0.00000
 BRILLOUIN|   209           0.00154       -0.34722        0.29167        0.00000
 BRILLOUIN|   210           0.00154       -0.34722        0.31944        0.00000
 BRILLOUIN|   211           0.00154       -0.34722        0.34722        0.00000
 BRILLOUIN|   212           0.00154       -0.34722        0.37500        0.00000
 BRILLOUIN|   213           0.00154       -0.34722        0.40278        0.00000
 BRILLOUIN|   214           0.00154       -0.34722        0.43056        0.00000
 BRILLOUIN|   215           0.00154       -0.34722        0.45833        0.00000
 BRILLOUIN|   216           0.00154       -0.34722        0.48611        0.00000
 BRILLOUIN|   217           0.00154       -0.31944       -0.48611        0.00000
 BRILLOUIN|   218           0.00154       -0.31944       -0.45833        0.00000
 BRILLOUIN|   219           0.00154       -0.31944       -0.43056        0.00000
 BRILLOUIN|   220           0.00154       -0.31944       -0.40278        0.00000
 BRILLOUIN|   221           0.00154       -0.31944       -0.37500        0.00000
 BRILLOUIN|   222           0.00154       -0.31944       -0.34722        0.00000
 BRILLOUIN|   223           0.00154       -0.31944       -0.31944        0.00000
 BRILLOUIN|   224           0.00154       -0.31944       -0.29167        0.00000
 BRILLOUIN|   225           0.00154       -0.31944       -0.26389        0.00000
 BRILLOUIN|   226           0.00154       -0.31944       -0.23611        0.00000
 BRILLOUIN|   227           0.00154       -0.31944       -0.20833        0.00000
 BRILLOUIN|   228           0.00154       -0.31944       -0.18056        0.00000
 BRILLOUIN|   229           0.00154       -0.31944       -0.15278        0.00000
 BRILLOUIN|   230           0.00154       -0.31944       -0.12500        0.00000
 BRILLOUIN|   231           0.00154       -0.31944       -0.09722        0.00000
 BRILLOUIN|   232           0.00154       -0.31944       -0.06944        0.00000
 BRILLOUIN|   233           0.00154       -0.31944       -0.04167        0.00000
 BRILLOUIN|   234           0.00154       -0.31944       -0.01389        0.00000
 BRILLOUIN|   235           0.00154       -0.31944        0.01389        0.00000
 BRILLOUIN|   236           0.00154       -0.31944        0.04167        0.00000
 BRILLOUIN|   237           0.00154       -0.31944        0.06944        0.00000
 BRILLOUIN|   238           0.00154       -0.31944        0.09722        0.00000
 BRILLOUIN|   239           0.00154       -0.31944        0.12500        0.00000
 BRILLOUIN|   240           0.00154       -0.31944        0.15278        0.00000
 BRILLOUIN|   241           0.00154       -0.31944        0.18056        0.00000
 BRILLOUIN|   242           0.00154       -0.31944        0.20833        0.00000
 BRILLOUIN|   243           0.00154       -0.31944        0.23611        0.00000
 BRILLOUIN|   244           0.00154       -0.31944        0.26389        0.00000
 BRILLOUIN|   245           0.00154       -0.31944        0.29167        0.00000
 BRILLOUIN|   246           0.00154       -0.31944        0.31944        0.00000
 BRILLOUIN|   247           0.00154       -0.31944        0.34722        0.00000
 BRILLOUIN|   248           0.00154       -0.31944        0.37500        0.00000
 BRILLOUIN|   249           0.00154       -0.31944        0.40278        0.00000
 BRILLOUIN|   250           0.00154       -0.31944        0.43056        0.00000
 BRILLOUIN|   251           0.00154       -0.31944        0.45833        0.00000
 BRILLOUIN|   252           0.00154       -0.31944        0.48611        0.00000
 BRILLOUIN|   253           0.00154       -0.29167       -0.48611        0.00000
 BRILLOUIN|   254           0.00154       -0.29167       -0.45833        0.00000
 BRILLOUIN|   255           0.00154       -0.29167       -0.43056        0.00000
 BRILLOUIN|   256           0.00154       -0.29167       -0.40278        0.00000
 BRILLOUIN|   257           0.00154       -0.29167       -0.37500        0.00000
 BRILLOUIN|   258           0.00154       -0.29167       -0.34722        0.00000
 BRILLOUIN|   259           0.00154       -0.29167       -0.31944        0.00000
 BRILLOUIN|   260           0.00154       -0.29167       -0.29167        0.00000
 BRILLOUIN|   261           0.00154       -0.29167       -0.26389        0.00000
 BRILLOUIN|   262           0.00154       -0.29167       -0.23611        0.00000
 BRILLOUIN|   263           0.00154       -0.29167       -0.20833        0.00000
 BRILLOUIN|   264           0.00154       -0.29167       -0.18056        0.00000
 BRILLOUIN|   265           0.00154       -0.29167       -0.15278        0.00000
 BRILLOUIN|   266           0.00154       -0.29167       -0.12500        0.00000
 BRILLOUIN|   267           0.00154       -0.29167       -0.09722        0.00000
 BRILLOUIN|   268           0.00154       -0.29167       -0.06944        0.00000
 BRILLOUIN|   269           0.00154       -0.29167       -0.04167        0.00000
 BRILLOUIN|   270           0.00154       -0.29167       -0.01389        0.00000
 BRILLOUIN|   271           0.00154       -0.29167        0.01389        0.00000
 BRILLOUIN|   272           0.00154       -0.29167        0.04167        0.00000
 BRILLOUIN|   273           0.00154       -0.29167        0.06944        0.00000
 BRILLOUIN|   274           0.00154       -0.29167        0.09722        0.00000
 BRILLOUIN|   275           0.00154       -0.29167        0.12500        0.00000
 BRILLOUIN|   276           0.00154       -0.29167        0.15278        0.00000
 BRILLOUIN|   277           0.00154       -0.29167        0.18056        0.00000
 BRILLOUIN|   278           0.00154       -0.29167        0.20833        0.00000
 BRILLOUIN|   279           0.00154       -0.29167        0.23611        0.00000
 BRILLOUIN|   280           0.00154       -0.29167        0.26389        0.00000
 BRILLOUIN|   281           0.00154       -0.29167        0.29167        0.00000
 BRILLOUIN|   282           0.00154       -0.29167        0.31944        0.00000
 BRILLOUIN|   283           0.00154       -0.29167        0.34722        0.00000
 BRILLOUIN|   284           0.00154       -0.29167        0.37500        0.00000
 BRILLOUIN|   285           0.00154       -0.29167        0.40278        0.00000
 BRILLOUIN|   286           0.00154       -0.29167        0.43056        0.00000
 BRILLOUIN|   287           0.00154       -0.29167        0.45833        0.00000
 BRILLOUIN|   288           0.00154       -0.29167        0.48611        0.00000
 BRILLOUIN|   289           0.00154       -0.26389       -0.48611        0.00000
 BRILLOUIN|   290           0.00154       -0.26389       -0.45833        0.00000
 BRILLOUIN|   291           0.00154       -0.26389       -0.43056        0.00000
 BRILLOUIN|   292           0.00154       -0.26389       -0.40278        0.00000
 BRILLOUIN|   293           0.00154       -0.26389       -0.37500        0.00000
 BRILLOUIN|   294           0.00154       -0.26389       -0.34722        0.00000
 BRILLOUIN|   295           0.00154       -0.26389       -0.31944        0.00000
 BRILLOUIN|   296           0.00154       -0.26389       -0.29167        0.00000
 BRILLOUIN|   297           0.00154       -0.26389       -0.26389        0.00000
 BRILLOUIN|   298           0.00154       -0.26389       -0.23611        0.00000
 BRILLOUIN|   299           0.00154       -0.26389       -0.20833        0.00000
 BRILLOUIN|   300           0.00154       -0.26389       -0.18056        0.00000
 BRILLOUIN|   301           0.00154       -0.26389       -0.15278        0.00000
 BRILLOUIN|   302           0.00154       -0.26389       -0.12500        0.00000
 BRILLOUIN|   303           0.00154       -0.26389       -0.09722        0.00000
 BRILLOUIN|   304           0.00154       -0.26389       -0.06944        0.00000
 BRILLOUIN|   305           0.00154       -0.26389       -0.04167        0.00000
 BRILLOUIN|   306           0.00154       -0.26389       -0.01389        0.00000
 BRILLOUIN|   307           0.00154       -0.26389        0.01389        0.00000
 BRILLOUIN|   308           0.00154       -0.26389        0.04167        0.00000
 BRILLOUIN|   309           0.00154       -0.26389        0.06944        0.00000
 BRILLOUIN|   310           0.00154       -0.26389        0.09722        0.00000
 BRILLOUIN|   311           0.00154       -0.26389        0.12500        0.00000
 BRILLOUIN|   312           0.00154       -0.26389        0.15278        0.00000
 BRILLOUIN|   313           0.00154       -0.26389        0.18056        0.00000
 BRILLOUIN|   314           0.00154       -0.26389        0.20833        0.00000
 BRILLOUIN|   315           0.00154       -0.26389        0.23611        0.00000
 BRILLOUIN|   316           0.00154       -0.26389        0.26389        0.00000
 BRILLOUIN|   317           0.00154       -0.26389        0.29167        0.00000
 BRILLOUIN|   318           0.00154       -0.26389        0.31944        0.00000
 BRILLOUIN|   319           0.00154       -0.26389        0.34722        0.00000
 BRILLOUIN|   320           0.00154       -0.26389        0.37500        0.00000
 BRILLOUIN|   321           0.00154       -0.26389        0.40278        0.00000
 BRILLOUIN|   322           0.00154       -0.26389        0.43056        0.00000
 BRILLOUIN|   323           0.00154       -0.26389        0.45833        0.00000
 BRILLOUIN|   324           0.00154       -0.26389        0.48611        0.00000
 BRILLOUIN|   325           0.00154       -0.23611       -0.48611        0.00000
 BRILLOUIN|   326           0.00154       -0.23611       -0.45833        0.00000
 BRILLOUIN|   327           0.00154       -0.23611       -0.43056        0.00000
 BRILLOUIN|   328           0.00154       -0.23611       -0.40278        0.00000
 BRILLOUIN|   329           0.00154       -0.23611       -0.37500        0.00000
 BRILLOUIN|   330           0.00154       -0.23611       -0.34722        0.00000
 BRILLOUIN|   331           0.00154       -0.23611       -0.31944        0.00000
 BRILLOUIN|   332           0.00154       -0.23611       -0.29167        0.00000
 BRILLOUIN|   333           0.00154       -0.23611       -0.26389        0.00000
 BRILLOUIN|   334           0.00154       -0.23611       -0.23611        0.00000
 BRILLOUIN|   335           0.00154       -0.23611       -0.20833        0.00000
 BRILLOUIN|   336           0.00154       -0.23611       -0.18056        0.00000
 BRILLOUIN|   337           0.00154       -0.23611       -0.15278        0.00000
 BRILLOUIN|   338           0.00154       -0.23611       -0.12500        0.00000
 BRILLOUIN|   339           0.00154       -0.23611       -0.09722        0.00000
 BRILLOUIN|   340           0.00154       -0.23611       -0.06944        0.00000
 BRILLOUIN|   341           0.00154       -0.23611       -0.04167        0.00000
 BRILLOUIN|   342           0.00154       -0.23611       -0.01389        0.00000
 BRILLOUIN|   343           0.00154       -0.23611        0.01389        0.00000
 BRILLOUIN|   344           0.00154       -0.23611        0.04167        0.00000
 BRILLOUIN|   345           0.00154       -0.23611        0.06944        0.00000
 BRILLOUIN|   346           0.00154       -0.23611        0.09722        0.00000
 BRILLOUIN|   347           0.00154       -0.23611        0.12500        0.00000
 BRILLOUIN|   348           0.00154       -0.23611        0.15278        0.00000
 BRILLOUIN|   349           0.00154       -0.23611        0.18056        0.00000
 BRILLOUIN|   350           0.00154       -0.23611        0.20833        0.00000
 BRILLOUIN|   351           0.00154       -0.23611        0.23611        0.00000
 BRILLOUIN|   352           0.00154       -0.23611        0.26389        0.00000
 BRILLOUIN|   353           0.00154       -0.23611        0.29167        0.00000
 BRILLOUIN|   354           0.00154       -0.23611        0.31944        0.00000
 BRILLOUIN|   355           0.00154       -0.23611        0.34722        0.00000
 BRILLOUIN|   356           0.00154       -0.23611        0.37500        0.00000
 BRILLOUIN|   357           0.00154       -0.23611        0.40278        0.00000
 BRILLOUIN|   358           0.00154       -0.23611        0.43056        0.00000
 BRILLOUIN|   359           0.00154       -0.23611        0.45833        0.00000
 BRILLOUIN|   360           0.00154       -0.23611        0.48611        0.00000
 BRILLOUIN|   361           0.00154       -0.20833       -0.48611        0.00000
 BRILLOUIN|   362           0.00154       -0.20833       -0.45833        0.00000
 BRILLOUIN|   363           0.00154       -0.20833       -0.43056        0.00000
 BRILLOUIN|   364           0.00154       -0.20833       -0.40278        0.00000
 BRILLOUIN|   365           0.00154       -0.20833       -0.37500        0.00000
 BRILLOUIN|   366           0.00154       -0.20833       -0.34722        0.00000
 BRILLOUIN|   367           0.00154       -0.20833       -0.31944        0.00000
 BRILLOUIN|   368           0.00154       -0.20833       -0.29167        0.00000
 BRILLOUIN|   369           0.00154       -0.20833       -0.26389        0.00000
 BRILLOUIN|   370           0.00154       -0.20833       -0.23611        0.00000
 BRILLOUIN|   371           0.00154       -0.20833       -0.20833        0.00000
 BRILLOUIN|   372           0.00154       -0.20833       -0.18056        0.00000
 BRILLOUIN|   373           0.00154       -0.20833       -0.15278        0.00000
 BRILLOUIN|   374           0.00154       -0.20833       -0.12500        0.00000
 BRILLOUIN|   375           0.00154       -0.20833       -0.09722        0.00000
 BRILLOUIN|   376           0.00154       -0.20833       -0.06944        0.00000
 BRILLOUIN|   377           0.00154       -0.20833       -0.04167        0.00000
 BRILLOUIN|   378           0.00154       -0.20833       -0.01389        0.00000
 BRILLOUIN|   379           0.00154       -0.20833        0.01389        0.00000
 BRILLOUIN|   380           0.00154       -0.20833        0.04167        0.00000
 BRILLOUIN|   381           0.00154       -0.20833        0.06944        0.00000
 BRILLOUIN|   382           0.00154       -0.20833        0.09722        0.00000
 BRILLOUIN|   383           0.00154       -0.20833        0.12500        0.00000
 BRILLOUIN|   384           0.00154       -0.20833        0.15278        0.00000
 BRILLOUIN|   385           0.00154       -0.20833        0.18056        0.00000
 BRILLOUIN|   386           0.00154       -0.20833        0.20833        0.00000
 BRILLOUIN|   387           0.00154       -0.20833        0.23611        0.00000
 BRILLOUIN|   388           0.00154       -0.20833        0.26389        0.00000
 BRILLOUIN|   389           0.00154       -0.20833        0.29167        0.00000
 BRILLOUIN|   390           0.00154       -0.20833        0.31944        0.00000
 BRILLOUIN|   391           0.00154       -0.20833        0.34722        0.00000
 BRILLOUIN|   392           0.00154       -0.20833        0.37500        0.00000
 BRILLOUIN|   393           0.00154       -0.20833        0.40278        0.00000
 BRILLOUIN|   394           0.00154       -0.20833        0.43056        0.00000
 BRILLOUIN|   395           0.00154       -0.20833        0.45833        0.00000
 BRILLOUIN|   396           0.00154       -0.20833        0.48611        0.00000
 BRILLOUIN|   397           0.00154       -0.18056       -0.48611        0.00000
 BRILLOUIN|   398           0.00154       -0.18056       -0.45833        0.00000
 BRILLOUIN|   399           0.00154       -0.18056       -0.43056        0.00000
 BRILLOUIN|   400           0.00154       -0.18056       -0.40278        0.00000
 BRILLOUIN|   401           0.00154       -0.18056       -0.37500        0.00000
 BRILLOUIN|   402           0.00154       -0.18056       -0.34722        0.00000
 BRILLOUIN|   403           0.00154       -0.18056       -0.31944        0.00000
 BRILLOUIN|   404           0.00154       -0.18056       -0.29167        0.00000
 BRILLOUIN|   405           0.00154       -0.18056       -0.26389        0.00000
 BRILLOUIN|   406           0.00154       -0.18056       -0.23611        0.00000
 BRILLOUIN|   407           0.00154       -0.18056       -0.20833        0.00000
 BRILLOUIN|   408           0.00154       -0.18056       -0.18056        0.00000
 BRILLOUIN|   409           0.00154       -0.18056       -0.15278        0.00000
 BRILLOUIN|   410           0.00154       -0.18056       -0.12500        0.00000
 BRILLOUIN|   411           0.00154       -0.18056       -0.09722        0.00000
 BRILLOUIN|   412           0.00154       -0.18056       -0.06944        0.00000
 BRILLOUIN|   413           0.00154       -0.18056       -0.04167        0.00000
 BRILLOUIN|   414           0.00154       -0.18056       -0.01389        0.00000
 BRILLOUIN|   415           0.00154       -0.18056        0.01389        0.00000
 BRILLOUIN|   416           0.00154       -0.18056        0.04167        0.00000
 BRILLOUIN|   417           0.00154       -0.18056        0.06944        0.00000
 BRILLOUIN|   418           0.00154       -0.18056        0.09722        0.00000
 BRILLOUIN|   419           0.00154       -0.18056        0.12500        0.00000
 BRILLOUIN|   420           0.00154       -0.18056        0.15278        0.00000
 BRILLOUIN|   421           0.00154       -0.18056        0.18056        0.00000
 BRILLOUIN|   422           0.00154       -0.18056        0.20833        0.00000
 BRILLOUIN|   423           0.00154       -0.18056        0.23611        0.00000
 BRILLOUIN|   424           0.00154       -0.18056        0.26389        0.00000
 BRILLOUIN|   425           0.00154       -0.18056        0.29167        0.00000
 BRILLOUIN|   426           0.00154       -0.18056        0.31944        0.00000
 BRILLOUIN|   427           0.00154       -0.18056        0.34722        0.00000
 BRILLOUIN|   428           0.00154       -0.18056        0.37500        0.00000
 BRILLOUIN|   429           0.00154       -0.18056        0.40278        0.00000
 BRILLOUIN|   430           0.00154       -0.18056        0.43056        0.00000
 BRILLOUIN|   431           0.00154       -0.18056        0.45833        0.00000
 BRILLOUIN|   432           0.00154       -0.18056        0.48611        0.00000
 BRILLOUIN|   433           0.00154       -0.15278       -0.48611        0.00000
 BRILLOUIN|   434           0.00154       -0.15278       -0.45833        0.00000
 BRILLOUIN|   435           0.00154       -0.15278       -0.43056        0.00000
 BRILLOUIN|   436           0.00154       -0.15278       -0.40278        0.00000
 BRILLOUIN|   437           0.00154       -0.15278       -0.37500        0.00000
 BRILLOUIN|   438           0.00154       -0.15278       -0.34722        0.00000
 BRILLOUIN|   439           0.00154       -0.15278       -0.31944        0.00000
 BRILLOUIN|   440           0.00154       -0.15278       -0.29167        0.00000
 BRILLOUIN|   441           0.00154       -0.15278       -0.26389        0.00000
 BRILLOUIN|   442           0.00154       -0.15278       -0.23611        0.00000
 BRILLOUIN|   443           0.00154       -0.15278       -0.20833        0.00000
 BRILLOUIN|   444           0.00154       -0.15278       -0.18056        0.00000
 BRILLOUIN|   445           0.00154       -0.15278       -0.15278        0.00000
 BRILLOUIN|   446           0.00154       -0.15278       -0.12500        0.00000
 BRILLOUIN|   447           0.00154       -0.15278       -0.09722        0.00000
 BRILLOUIN|   448           0.00154       -0.15278       -0.06944        0.00000
 BRILLOUIN|   449           0.00154       -0.15278       -0.04167        0.00000
 BRILLOUIN|   450           0.00154       -0.15278       -0.01389        0.00000
 BRILLOUIN|   451           0.00154       -0.15278        0.01389        0.00000
 BRILLOUIN|   452           0.00154       -0.15278        0.04167        0.00000
 BRILLOUIN|   453           0.00154       -0.15278        0.06944        0.00000
 BRILLOUIN|   454           0.00154       -0.15278        0.09722        0.00000
 BRILLOUIN|   455           0.00154       -0.15278        0.12500        0.00000
 BRILLOUIN|   456           0.00154       -0.15278        0.15278        0.00000
 BRILLOUIN|   457           0.00154       -0.15278        0.18056        0.00000
 BRILLOUIN|   458           0.00154       -0.15278        0.20833        0.00000
 BRILLOUIN|   459           0.00154       -0.15278        0.23611        0.00000
 BRILLOUIN|   460           0.00154       -0.15278        0.26389        0.00000
 BRILLOUIN|   461           0.00154       -0.15278        0.29167        0.00000
 BRILLOUIN|   462           0.00154       -0.15278        0.31944        0.00000
 BRILLOUIN|   463           0.00154       -0.15278        0.34722        0.00000
 BRILLOUIN|   464           0.00154       -0.15278        0.37500        0.00000
 BRILLOUIN|   465           0.00154       -0.15278        0.40278        0.00000
 BRILLOUIN|   466           0.00154       -0.15278        0.43056        0.00000
 BRILLOUIN|   467           0.00154       -0.15278        0.45833        0.00000
 BRILLOUIN|   468           0.00154       -0.15278        0.48611        0.00000
 BRILLOUIN|   469           0.00154       -0.12500       -0.48611        0.00000
 BRILLOUIN|   470           0.00154       -0.12500       -0.45833        0.00000
 BRILLOUIN|   471           0.00154       -0.12500       -0.43056        0.00000
 BRILLOUIN|   472           0.00154       -0.12500       -0.40278        0.00000
 BRILLOUIN|   473           0.00154       -0.12500       -0.37500        0.00000
 BRILLOUIN|   474           0.00154       -0.12500       -0.34722        0.00000
 BRILLOUIN|   475           0.00154       -0.12500       -0.31944        0.00000
 BRILLOUIN|   476           0.00154       -0.12500       -0.29167        0.00000
 BRILLOUIN|   477           0.00154       -0.12500       -0.26389        0.00000
 BRILLOUIN|   478           0.00154       -0.12500       -0.23611        0.00000
 BRILLOUIN|   479           0.00154       -0.12500       -0.20833        0.00000
 BRILLOUIN|   480           0.00154       -0.12500       -0.18056        0.00000
 BRILLOUIN|   481           0.00154       -0.12500       -0.15278        0.00000
 BRILLOUIN|   482           0.00154       -0.12500       -0.12500        0.00000
 BRILLOUIN|   483           0.00154       -0.12500       -0.09722        0.00000
 BRILLOUIN|   484           0.00154       -0.12500       -0.06944        0.00000
 BRILLOUIN|   485           0.00154       -0.12500       -0.04167        0.00000
 BRILLOUIN|   486           0.00154       -0.12500       -0.01389        0.00000
 BRILLOUIN|   487           0.00154       -0.12500        0.01389        0.00000
 BRILLOUIN|   488           0.00154       -0.12500        0.04167        0.00000
 BRILLOUIN|   489           0.00154       -0.12500        0.06944        0.00000
 BRILLOUIN|   490           0.00154       -0.12500        0.09722        0.00000
 BRILLOUIN|   491           0.00154       -0.12500        0.12500        0.00000
 BRILLOUIN|   492           0.00154       -0.12500        0.15278        0.00000
 BRILLOUIN|   493           0.00154       -0.12500        0.18056        0.00000
 BRILLOUIN|   494           0.00154       -0.12500        0.20833        0.00000
 BRILLOUIN|   495           0.00154       -0.12500        0.23611        0.00000
 BRILLOUIN|   496           0.00154       -0.12500        0.26389        0.00000
 BRILLOUIN|   497           0.00154       -0.12500        0.29167        0.00000
 BRILLOUIN|   498           0.00154       -0.12500        0.31944        0.00000
 BRILLOUIN|   499           0.00154       -0.12500        0.34722        0.00000
 BRILLOUIN|   500           0.00154       -0.12500        0.37500        0.00000
 BRILLOUIN|   501           0.00154       -0.12500        0.40278        0.00000
 BRILLOUIN|   502           0.00154       -0.12500        0.43056        0.00000
 BRILLOUIN|   503           0.00154       -0.12500        0.45833        0.00000
 BRILLOUIN|   504           0.00154       -0.12500        0.48611        0.00000
 BRILLOUIN|   505           0.00154       -0.09722       -0.48611        0.00000
 BRILLOUIN|   506           0.00154       -0.09722       -0.45833        0.00000
 BRILLOUIN|   507           0.00154       -0.09722       -0.43056        0.00000
 BRILLOUIN|   508           0.00154       -0.09722       -0.40278        0.00000
 BRILLOUIN|   509           0.00154       -0.09722       -0.37500        0.00000
 BRILLOUIN|   510           0.00154       -0.09722       -0.34722        0.00000
 BRILLOUIN|   511           0.00154       -0.09722       -0.31944        0.00000
 BRILLOUIN|   512           0.00154       -0.09722       -0.29167        0.00000
 BRILLOUIN|   513           0.00154       -0.09722       -0.26389        0.00000
 BRILLOUIN|   514           0.00154       -0.09722       -0.23611        0.00000
 BRILLOUIN|   515           0.00154       -0.09722       -0.20833        0.00000
 BRILLOUIN|   516           0.00154       -0.09722       -0.18056        0.00000
 BRILLOUIN|   517           0.00154       -0.09722       -0.15278        0.00000
 BRILLOUIN|   518           0.00154       -0.09722       -0.12500        0.00000
 BRILLOUIN|   519           0.00154       -0.09722       -0.09722        0.00000
 BRILLOUIN|   520           0.00154       -0.09722       -0.06944        0.00000
 BRILLOUIN|   521           0.00154       -0.09722       -0.04167        0.00000
 BRILLOUIN|   522           0.00154       -0.09722       -0.01389        0.00000
 BRILLOUIN|   523           0.00154       -0.09722        0.01389        0.00000
 BRILLOUIN|   524           0.00154       -0.09722        0.04167        0.00000
 BRILLOUIN|   525           0.00154       -0.09722        0.06944        0.00000
 BRILLOUIN|   526           0.00154       -0.09722        0.09722        0.00000
 BRILLOUIN|   527           0.00154       -0.09722        0.12500        0.00000
 BRILLOUIN|   528           0.00154       -0.09722        0.15278        0.00000
 BRILLOUIN|   529           0.00154       -0.09722        0.18056        0.00000
 BRILLOUIN|   530           0.00154       -0.09722        0.20833        0.00000
 BRILLOUIN|   531           0.00154       -0.09722        0.23611        0.00000
 BRILLOUIN|   532           0.00154       -0.09722        0.26389        0.00000
 BRILLOUIN|   533           0.00154       -0.09722        0.29167        0.00000
 BRILLOUIN|   534           0.00154       -0.09722        0.31944        0.00000
 BRILLOUIN|   535           0.00154       -0.09722        0.34722        0.00000
 BRILLOUIN|   536           0.00154       -0.09722        0.37500        0.00000
 BRILLOUIN|   537           0.00154       -0.09722        0.40278        0.00000
 BRILLOUIN|   538           0.00154       -0.09722        0.43056        0.00000
 BRILLOUIN|   539           0.00154       -0.09722        0.45833        0.00000
 BRILLOUIN|   540           0.00154       -0.09722        0.48611        0.00000
 BRILLOUIN|   541           0.00154       -0.06944       -0.48611        0.00000
 BRILLOUIN|   542           0.00154       -0.06944       -0.45833        0.00000
 BRILLOUIN|   543           0.00154       -0.06944       -0.43056        0.00000
 BRILLOUIN|   544           0.00154       -0.06944       -0.40278        0.00000
 BRILLOUIN|   545           0.00154       -0.06944       -0.37500        0.00000
 BRILLOUIN|   546           0.00154       -0.06944       -0.34722        0.00000
 BRILLOUIN|   547           0.00154       -0.06944       -0.31944        0.00000
 BRILLOUIN|   548           0.00154       -0.06944       -0.29167        0.00000
 BRILLOUIN|   549           0.00154       -0.06944       -0.26389        0.00000
 BRILLOUIN|   550           0.00154       -0.06944       -0.23611        0.00000
 BRILLOUIN|   551           0.00154       -0.06944       -0.20833        0.00000
 BRILLOUIN|   552           0.00154       -0.06944       -0.18056        0.00000
 BRILLOUIN|   553           0.00154       -0.06944       -0.15278        0.00000
 BRILLOUIN|   554           0.00154       -0.06944       -0.12500        0.00000
 BRILLOUIN|   555           0.00154       -0.06944       -0.09722        0.00000
 BRILLOUIN|   556           0.00154       -0.06944       -0.06944        0.00000
 BRILLOUIN|   557           0.00154       -0.06944       -0.04167        0.00000
 BRILLOUIN|   558           0.00154       -0.06944       -0.01389        0.00000
 BRILLOUIN|   559           0.00154       -0.06944        0.01389        0.00000
 BRILLOUIN|   560           0.00154       -0.06944        0.04167        0.00000
 BRILLOUIN|   561           0.00154       -0.06944        0.06944        0.00000
 BRILLOUIN|   562           0.00154       -0.06944        0.09722        0.00000
 BRILLOUIN|   563           0.00154       -0.06944        0.12500        0.00000
 BRILLOUIN|   564           0.00154       -0.06944        0.15278        0.00000
 BRILLOUIN|   565           0.00154       -0.06944        0.18056        0.00000
 BRILLOUIN|   566           0.00154       -0.06944        0.20833        0.00000
 BRILLOUIN|   567           0.00154       -0.06944        0.23611        0.00000
 BRILLOUIN|   568           0.00154       -0.06944        0.26389        0.00000
 BRILLOUIN|   569           0.00154       -0.06944        0.29167        0.00000
 BRILLOUIN|   570           0.00154       -0.06944        0.31944        0.00000
 BRILLOUIN|   571           0.00154       -0.06944        0.34722        0.00000
 BRILLOUIN|   572           0.00154       -0.06944        0.37500        0.00000
 BRILLOUIN|   573           0.00154       -0.06944        0.40278        0.00000
 BRILLOUIN|   574           0.00154       -0.06944        0.43056        0.00000
 BRILLOUIN|   575           0.00154       -0.06944        0.45833        0.00000
 BRILLOUIN|   576           0.00154       -0.06944        0.48611        0.00000
 BRILLOUIN|   577           0.00154       -0.04167       -0.48611        0.00000
 BRILLOUIN|   578           0.00154       -0.04167       -0.45833        0.00000
 BRILLOUIN|   579           0.00154       -0.04167       -0.43056        0.00000
 BRILLOUIN|   580           0.00154       -0.04167       -0.40278        0.00000
 BRILLOUIN|   581           0.00154       -0.04167       -0.37500        0.00000
 BRILLOUIN|   582           0.00154       -0.04167       -0.34722        0.00000
 BRILLOUIN|   583           0.00154       -0.04167       -0.31944        0.00000
 BRILLOUIN|   584           0.00154       -0.04167       -0.29167        0.00000
 BRILLOUIN|   585           0.00154       -0.04167       -0.26389        0.00000
 BRILLOUIN|   586           0.00154       -0.04167       -0.23611        0.00000
 BRILLOUIN|   587           0.00154       -0.04167       -0.20833        0.00000
 BRILLOUIN|   588           0.00154       -0.04167       -0.18056        0.00000
 BRILLOUIN|   589           0.00154       -0.04167       -0.15278        0.00000
 BRILLOUIN|   590           0.00154       -0.04167       -0.12500        0.00000
 BRILLOUIN|   591           0.00154       -0.04167       -0.09722        0.00000
 BRILLOUIN|   592           0.00154       -0.04167       -0.06944        0.00000
 BRILLOUIN|   593           0.00154       -0.04167       -0.04167        0.00000
 BRILLOUIN|   594           0.00154       -0.04167       -0.01389        0.00000
 BRILLOUIN|   595           0.00154       -0.04167        0.01389        0.00000
 BRILLOUIN|   596           0.00154       -0.04167        0.04167        0.00000
 BRILLOUIN|   597           0.00154       -0.04167        0.06944        0.00000
 BRILLOUIN|   598           0.00154       -0.04167        0.09722        0.00000
 BRILLOUIN|   599           0.00154       -0.04167        0.12500        0.00000
 BRILLOUIN|   600           0.00154       -0.04167        0.15278        0.00000
 BRILLOUIN|   601           0.00154       -0.04167        0.18056        0.00000
 BRILLOUIN|   602           0.00154       -0.04167        0.20833        0.00000
 BRILLOUIN|   603           0.00154       -0.04167        0.23611        0.00000
 BRILLOUIN|   604           0.00154       -0.04167        0.26389        0.00000
 BRILLOUIN|   605           0.00154       -0.04167        0.29167        0.00000
 BRILLOUIN|   606           0.00154       -0.04167        0.31944        0.00000
 BRILLOUIN|   607           0.00154       -0.04167        0.34722        0.00000
 BRILLOUIN|   608           0.00154       -0.04167        0.37500        0.00000
 BRILLOUIN|   609           0.00154       -0.04167        0.40278        0.00000
 BRILLOUIN|   610           0.00154       -0.04167        0.43056        0.00000
 BRILLOUIN|   611           0.00154       -0.04167        0.45833        0.00000
 BRILLOUIN|   612           0.00154       -0.04167        0.48611        0.00000
 BRILLOUIN|   613           0.00154       -0.01389       -0.48611        0.00000
 BRILLOUIN|   614           0.00154       -0.01389       -0.45833        0.00000
 BRILLOUIN|   615           0.00154       -0.01389       -0.43056        0.00000
 BRILLOUIN|   616           0.00154       -0.01389       -0.40278        0.00000
 BRILLOUIN|   617           0.00154       -0.01389       -0.37500        0.00000
 BRILLOUIN|   618           0.00154       -0.01389       -0.34722        0.00000
 BRILLOUIN|   619           0.00154       -0.01389       -0.31944        0.00000
 BRILLOUIN|   620           0.00154       -0.01389       -0.29167        0.00000
 BRILLOUIN|   621           0.00154       -0.01389       -0.26389        0.00000
 BRILLOUIN|   622           0.00154       -0.01389       -0.23611        0.00000
 BRILLOUIN|   623           0.00154       -0.01389       -0.20833        0.00000
 BRILLOUIN|   624           0.00154       -0.01389       -0.18056        0.00000
 BRILLOUIN|   625           0.00154       -0.01389       -0.15278        0.00000
 BRILLOUIN|   626           0.00154       -0.01389       -0.12500        0.00000
 BRILLOUIN|   627           0.00154       -0.01389       -0.09722        0.00000
 BRILLOUIN|   628           0.00154       -0.01389       -0.06944        0.00000
 BRILLOUIN|   629           0.00154       -0.01389       -0.04167        0.00000
 BRILLOUIN|   630           0.00154       -0.01389       -0.01389        0.00000
 BRILLOUIN|   631           0.00154       -0.01389        0.01389        0.00000
 BRILLOUIN|   632           0.00154       -0.01389        0.04167        0.00000
 BRILLOUIN|   633           0.00154       -0.01389        0.06944        0.00000
 BRILLOUIN|   634           0.00154       -0.01389        0.09722        0.00000
 BRILLOUIN|   635           0.00154       -0.01389        0.12500        0.00000
 BRILLOUIN|   636           0.00154       -0.01389        0.15278        0.00000
 BRILLOUIN|   637           0.00154       -0.01389        0.18056        0.00000
 BRILLOUIN|   638           0.00154       -0.01389        0.20833        0.00000
 BRILLOUIN|   639           0.00154       -0.01389        0.23611        0.00000
 BRILLOUIN|   640           0.00154       -0.01389        0.26389        0.00000
 BRILLOUIN|   641           0.00154       -0.01389        0.29167        0.00000
 BRILLOUIN|   642           0.00154       -0.01389        0.31944        0.00000
 BRILLOUIN|   643           0.00154       -0.01389        0.34722        0.00000
 BRILLOUIN|   644           0.00154       -0.01389        0.37500        0.00000
 BRILLOUIN|   645           0.00154       -0.01389        0.40278        0.00000
 BRILLOUIN|   646           0.00154       -0.01389        0.43056        0.00000
 BRILLOUIN|   647           0.00154       -0.01389        0.45833        0.00000
 BRILLOUIN|   648           0.00154       -0.01389        0.48611        0.00000
 *******************************************************************************

 *******************************************************************************
 *******************************************************************************
 **                                                                           **
 **     #####                         ##              ##                      **
 **    ##   ##            ##          ##              ##                      **
 **   ##     ##                       ##            ######                    **
 **   ##     ##  ##   ##  ##   #####  ##  ##   ####   ##    #####    #####    **
 **   ##     ##  ##   ##  ##  ##      ## ##   ##      ##   ##   ##  ##   ##   **
 **   ##  ## ##  ##   ##  ##  ##      ####     ###    ##   ######   ######    **
 **    ##  ###   ##   ##  ##  ##      ## ##      ##   ##   ##       ##        **
 **     #######   #####   ##   #####  ##  ##  ####    ##    #####   ##        **
 **           ##                                                    ##        **
 **                                                                           **
 **                                                ... make the atoms dance   **
 **                                                                           **
 **            Copyright (C) by CP2K developers group (2000-2024)             **
 **                      J. Chem. Phys. 152, 194103 (2020)                    **
 **                                                                           **
 *******************************************************************************

 DFT| Spin restricted Kohn-Sham (RKS) calculation                            RKS
 DFT| Multiplicity                                                             1
 DFT| Number of spin states                                                    1
 DFT| Charge                                                                   0
 DFT| Self-interaction correction (SIC)                                       NO
 DFT| Cutoffs: density                                              1.000000E-10
 DFT|          gradient                                             1.000000E-10
 DFT|          tau                                                  1.000000E-10
 DFT|          cutoff_smoothing_range                               0.000000E+00
 DFT| XC density smoothing                                                  NONE
 DFT| XC derivatives                                                          PW

 FUNCTIONAL| PBE:
 FUNCTIONAL| J.P.Perdew, K.Burke, M.Ernzerhof, Phys. Rev. Letter, vol. 77, n 18,
 FUNCTIONAL|  pp. 3865-3868, (1996) {spin unpolarized}                          


 QS| Method:                                                                GAPW
 QS| Density plane wave grid type                        NON-SPHERICAL FULLSPACE
 QS| Number of grid levels:                                                    4
 QS| Density cutoff [a.u.]:                                                250.0
 QS| Multi grid cutoff [a.u.]: 1) grid level                               250.0
 QS|                           2) grid level                                83.3
 QS|                           3) grid level                                27.8
 QS|                           4) grid level                                 9.3
 QS| Grid level progression factor:                                          3.0
 QS| Relative density cutoff [a.u.]:                                        50.0
 QS| Interaction thresholds: eps_pgf_orb:                                1.0E-12
 QS|                         eps_filter_matrix:                          0.0E+00
 QS|                         eps_core_charge:                            1.0E-14
 QS|                         eps_rho_gspace:                             1.0E-12
 QS|                         eps_rho_rspace:                             1.0E-12
 QS|                         eps_gvg_rspace:                             1.0E-06
 QS|                         eps_ppl:                                    1.0E-02
 QS|                         eps_ppnl:                                   1.0E-08
 QS| GAPW|      One center basis from orbital basis primitives
 QS| GAPW|                   eps_fit:                                    1.0E-04
 QS| GAPW|                   eps_iso:                                    1.0E-12
 QS| GAPW|                   eps_svd:                                    1.0E-08
 QS| GAPW|                   eps_cpc:                                    1.0E-12
 QS| GAPW|   atom-r-grid: quadrature:                                     GC_LOG
 QS| GAPW|      atom-s-grid:  max l :                                          6
 QS| GAPW|      max_l_rho0 :                                                   2
 QS| GAPW|      At least one kind is NOT PAW, i.e. it has only soft AO 
 QS| GAPW|      The NOT PAW atoms are treated fully GPW


 ATOMIC KIND INFORMATION

  1. Atomic kind: Mo                                    Number of atoms:       1

     Orbital Basis Set                                       TZV2P-MOLOPT-SR-GTH

       Number of orbital shell sets:                                           1
       Number of orbital shells:                                              12
       Number of primitive Cartesian functions:                                7
       Number of Cartesian basis functions:                                   51
       Number of spherical basis functions:                                   42
       Norm type:                                                              2

       Normalised Cartesian orbitals:

                        Set   Shell   Orbital            Exponent    Coefficient

                          1       1    2s                2.540273      -1.321231
                                                         1.999996       0.386074
                                                         0.894040       0.632184
                                                         0.439257       0.196926
                                                         0.189498       0.017023
                                                         0.083802      -0.027705
                                                         0.052949      -0.026613

                          1       2    3s                2.540273       0.226721
                                                         1.999996      -0.073158
                                                         0.894040      -0.053559
                                                         0.439257       0.091291
                                                         0.189498      -0.109922
                                                         0.083802      -0.065996
                                                         0.052949      -0.004390

                          1       3    4s                2.540273       0.151037
                                                         1.999996      -0.934259
                                                         0.894040       0.277268
                                                         0.439257      -0.018911
                                                         0.189498       0.203898
                                                         0.083802      -0.107599
                                                         0.052949       0.083646

                          1       4    5s                2.540273      -0.119990
                                                         1.999996       0.896807
                                                         0.894040       0.455473
                                                         0.439257      -0.443578
                                                         0.189498      -0.167165
                                                         0.083802      -0.001095
                                                         0.052949       0.077321

                          1       5    3px               2.540273       2.622682
                                                         1.999996      -2.341890
                                                         0.894040      -0.583031
                                                         0.439257      -0.176984
                                                         0.189498      -0.015780
                                                         0.083802      -0.000908
                                                         0.052949      -0.000447
                          1       5    3py               2.540273       2.622682
                                                         1.999996      -2.341890
                                                         0.894040      -0.583031
                                                         0.439257      -0.176984
                                                         0.189498      -0.015780
                                                         0.083802      -0.000908
                                                         0.052949      -0.000447
                          1       5    3pz               2.540273       2.622682
                                                         1.999996      -2.341890
                                                         0.894040      -0.583031
                                                         0.439257      -0.176984
                                                         0.189498      -0.015780
                                                         0.083802      -0.000908
                                                         0.052949      -0.000447

                          1       6    4px               2.540273      -0.260015
                                                         1.999996       0.590944
                                                         0.894040      -0.043681
                                                         0.439257      -0.117520
                                                         0.189498      -0.105390
                                                         0.083802      -0.009391
                                                         0.052949      -0.005803
                          1       6    4py               2.540273      -0.260015
                                                         1.999996       0.590944
                                                         0.894040      -0.043681
                                                         0.439257      -0.117520
                                                         0.189498      -0.105390
                                                         0.083802      -0.009391
                                                         0.052949      -0.005803
                          1       6    4pz               2.540273      -0.260015
                                                         1.999996       0.590944
                                                         0.894040      -0.043681
                                                         0.439257      -0.117520
                                                         0.189498      -0.105390
                                                         0.083802      -0.009391
                                                         0.052949      -0.005803

                          1       7    5px               2.540273      -0.353254
                                                         1.999996       0.905805
                                                         0.894040       0.246303
                                                         0.439257      -0.518036
                                                         0.189498       0.039707
                                                         0.083802      -0.012470
                                                         0.052949       0.039500
                          1       7    5py               2.540273      -0.353254
                                                         1.999996       0.905805
                                                         0.894040       0.246303
                                                         0.439257      -0.518036
                                                         0.189498       0.039707
                                                         0.083802      -0.012470
                                                         0.052949       0.039500
                          1       7    5pz               2.540273      -0.353254
                                                         1.999996       0.905805
                                                         0.894040       0.246303
                                                         0.439257      -0.518036
                                                         0.189498       0.039707
                                                         0.083802      -0.012470
                                                         0.052949       0.039500

                          1       8    4dx2              2.540273      -1.497042
                                                         1.999996       1.923448
                                                         0.894040       0.383738
                                                         0.439257       0.135280
                                                         0.189498       0.028294
                                                         0.083802       0.001439
                                                         0.052949       0.000783
                          1       8    4dxy              2.540273      -2.592953
                                                         1.999996       3.331510
                                                         0.894040       0.664653
                                                         0.439257       0.234311
                                                         0.189498       0.049007
                                                         0.083802       0.002493
                                                         0.052949       0.001357
                          1       8    4dxz              2.540273      -2.592953
                                                         1.999996       3.331510
                                                         0.894040       0.664653
                                                         0.439257       0.234311
                                                         0.189498       0.049007
                                                         0.083802       0.002493
                                                         0.052949       0.001357
                          1       8    4dy2              2.540273      -1.497042
                                                         1.999996       1.923448
                                                         0.894040       0.383738
                                                         0.439257       0.135280
                                                         0.189498       0.028294
                                                         0.083802       0.001439
                                                         0.052949       0.000783
[...]
 CP2K is freely available from https://www.cp2k.org/ .

 Graml, Maximilian; Zollner, Klaus; Hernangmez-Prez, Daniel;
 Faria Junior, Paulo Eduardo; Wilhelm, Jan. 
 Journal of Chemical Theory and Computation, 20, 2202-2208 (2024). 
 Low-scaling GW algorithm applied to twisted transition-metal
 dichalcogenide heterobilayers.
 https://doi.org/10.1021/acs.jctc.3c01230

 Kuehne,Thomas D.; Iannuzzi,Marcella; Del Ben,Mauro;
 Rybkin,Vladimir V.; Seewald,Patrick; Stein,Frederick; Laino,Teodoro;
 Khaliullin,Rustam Z.; Schuett,Ole; Schiffmann,Florian; Golze,Dorothea;
 Wilhelm,Jan; Chulkov,Sergey; Bani-Hashemian,Mohammad Hossein;
 Weber,Valery; Borstnik,Urban; Taillefumier,Mathieu;
 Jakobovits,Alice Shoshana; Lazzaro,Alfio; Pabst,Hans; Mueller,Tiziano;
 Schade,Robert; Guidon,Manuel; Andermatt,Samuel; Holmberg,Nico;
 Schenter,Gregory K.; Hehn,Anna; Bussy,Augustin; Belleflamme,Fabian;
 Tabacchi,Gloria; Gloess,Andreas; Lass,Michael; Bethune,Iain;
 Mundy,Christopher J.; Plessl,Christian; Watkins,Matt;
 VandeVondele,Joost; Krack,Matthias; Hutter,Juerg. 
 The Journal of Chemical Physics, 152 (19), (2020). 
 CP2K: An electronic structure and molecular dynamics software package -
 Quickstep: Efficient and accurate electronic structure calculations.
 https://doi.org/10.1063/5.0007045

 Togo, Atsushi; Tanaka, Isao. arXiv, 1808.01590 (2018). 
 Spglib : a software library for crystal symmetry search.
 https://doi.org/xxx

 Schuett, Ole; Messmer, Peter; Hutter, Juerg; VandeVondele, Joost. 
 Electronic Structure Calculations on Graphics Processing Units, John
 Wiley & Sons, Ltd, 173-190 (2016). 
 GPU-Accelerated Sparse Matrix-Matrix Multiplication for
 Linear Scaling Density Functional Theory.
 https://doi.org/10.1002/9781118670712.ch8

 Heinecke, A; Henry, G; Hutchinson, M; Pabst, H. 
 Proceedings of Intl. Supercomputing Conference, 981-991 (2016). 
 LIBXSMM: Accelerating Small Matrix Multiplications
 by Runtime Code Generation.
 https://doi.org/10.1109/SC.2016.83

 Borstnik, U; VandeVondele, J; Weber, V; Hutter, J. 
 PARALLEL COMPUTING, 40 (5-6), 47-58 (2014). 
 Sparse matrix multiplication: The distributed block-compressed sparse
 row library.
 https://doi.org/10.1016/j.parco.2014.03.012

 Hutter, J; Iannuzzi, M; Schiffmann, F; VandeVondele, J. 
 WIREs Comput Mol Sci., 4 (1), 15-25 (2014). 
 CP2K: atomistic simulations of condensed matter systems.
 https://doi.org/10.1002/wcms.1159

 Marek, A; Blum, V; Johanni, R; Havu, V; Lang, B; Auckenthaler, T;
 Heinecke, A; Bungartz, H; Lederer, H. 
 Journal of Physics: Condensed Matter, 26 (21), (2014). 
 The ELPA library: scalable parallel eigenvalue solutions for
 electronic structure
 theory and computational science.
 https://doi.org/10.1088/0953-8984/26/21/213201

 VandeVondele, J; Hutter, J. 
 JOURNAL OF CHEMICAL PHYSICS, 127 (11), 114105 (2007). 
 Gaussian basis sets for accurate calculations on molecular systems in
 gas and condensed phases.
 https://doi.org/10.1063/1.2770708

 Krack, M. 
 THEORETICAL CHEMISTRY ACCOUNTS, 114 (1-3), 145-152 (2005). 
 Pseudopotentials for H to Kr optimized for gradient-corrected
 exchange-correlation functionals.
 https://doi.org/10.1007/s00214-005-0655-y

 Frigo, M; Johnson, SG. 
 PROCEEDINGS OF THE IEEE, 93 (2), 216-231 (2005). 
 The design and implementation of FFTW3.
 https://doi.org/10.1109/JPROC.2004.840301

 Lippert, G; Hutter, J; Parrinello, M. 
 THEORETICAL CHEMISTRY ACCOUNTS, 103 (2), 124-140 (1999). 
 The Gaussian and augmented-plane-wave density functional method for ab
 initio molecular dynamics simulations.
 https://doi.org/10.1007/s002140050523

 Krack, M; Parrinello, M. 
 PHYSICAL CHEMISTRY CHEMICAL PHYSICS, 2 (10), 2105-2112 (2000). 
 All-electron ab-initio molecular dynamics.
 https://doi.org/10.1039/b001167n

 Hartwigsen, C; Goedecker, S; Hutter, J. 
 PHYSICAL REVIEW B, 58 (7), 3641-3662 (1998). 
 Relativistic separable dual-space Gaussian pseudopotentials from H to Rn.
 https://doi.org/10.1103/PhysRevB.58.3641

 Perdew, JP; Burke, K; Ernzerhof, M. 
 PHYSICAL REVIEW LETTERS, 77 (18), 3865-3868 (1996). 
 Generalized gradient approximation made simple.
 https://doi.org/10.1103/PhysRevLett.77.3865

 Goedecker, S; Teter, M; Hutter, J. 
 PHYSICAL REVIEW B, 54 (3), 1703-1710 (1996). 
 Separable dual-space Gaussian pseudopotentials.
 https://doi.org/10.1103/PhysRevB.54.1703


 -------------------------------------------------------------------------------
 -                                                                             -
 -                                T I M I N G                                  -
 -                                                                             -
 -------------------------------------------------------------------------------
 SUBROUTINE                       CALLS  ASD         SELF TIME        TOTAL TIME
                                MAXIMUM       AVERAGE  MAXIMUM  AVERAGE  MAXIMUM
 CP2K                                 1  1.0     0.04     0.21 54297.07 54297.40
 qs_energies                          1  2.0     0.00     0.04 54295.85 54296.17
 qs_energies_properties               1  3.0     0.00     0.00 54277.52 54277.84
 post_scf_bandstructure               1  4.0     0.00     0.02 54277.52 54277.84
 gw                                   1  5.0     0.00     0.02 54149.59 54149.91
 gw_calc_small_cell_full_kp           1  6.0     0.00     0.01 53956.14 53956.47
 dbt_total                      *******  9.9   113.93   122.84 46686.15 50876.10
 dbt_contract                   ******* 10.6   189.27   216.60 37422.92 41124.09
 dbt_tas_multiply               ******* 13.0    23.99    27.11 35099.89 39227.64
 dbt_tas_total                  ******* 14.0  1086.52  1168.98 34514.18 38251.61
 compute_Sigma_c                      1  7.0     0.01     0.01 29771.03 29771.20
 compute_chi                          1  7.0     0.19     0.22 21990.46 21990.59
 mp_sync                        ******* -5.3 14052.68 20906.37 14052.68 20906.37
 contract_to_Sigma                 1159  8.0   128.94   134.77 16067.33 19595.16
 dbt_tas_dbm                    ******* 15.0    20.89    22.88 15800.33 18526.99
 dbm_multiply                   ******* 17.0 11281.15 14884.52 11281.15 14884.52
 contract_M_occ_vir_to_chi          570  8.0   236.84   247.56 11551.58 12145.39
 contract_to_Sigma_3c_x_G       *******  9.0    17.47    18.95  9648.76 11621.21
 contract_W                         589  8.0    25.72    27.13 10834.79 11416.36
 dbt_copy                       ******* 11.1   125.72   138.94  7935.16 10665.58
 G_times_3c                       68520  8.0    32.63    37.33  9123.04  9344.98
 dbt_tas_estimate_result_nze    ******* 13.5  1840.08  2426.73  8482.71  8792.14
 dbt_tas_mm_2                   8274274 16.1     8.85    10.41  7143.51  8695.24
 dbt_reshape                    ******* 12.0  3890.82  5486.24  6320.55  8496.77
 contract_to_Sigma_contract       69662  9.0    36.97    39.13  6224.69  7778.17
 dbt_tas_mm_3T                  ******* 16.2     6.20     7.18  3627.00  5688.88
 get_t_3c_int                   *******  9.6    65.41    68.32  4898.89  5404.23
 reshape_mm_small               ******* 15.0  1522.19  1695.24  4134.53  4454.86
 mp_waitall_2                   ******* 17.6  2677.46  3533.75  2677.46  3533.75
 dbt_tas_create_split           ******* 16.1    46.17    50.60  3144.55  3402.13
 dbt_tas_create_split_rows_or_c ******* 17.1   163.61   178.35  3098.38  3356.95
 reshape_mm_compatible          ******* 15.0   223.45   241.88  2744.68  2952.05
 dbt_communicate_buffer         ******* 13.0    34.02    44.75  1962.12  2755.56
 dbt_tas_mm_1N                  6905570 15.5     3.85     4.43  1954.78  2693.33
 dbt_remap                      1639518 11.0   156.83   188.98  1644.42  2636.61
 dbt_tas_distribution_new       ******* 15.8  1114.93  1164.33  2381.23  2626.97
 change_split                   ******* 15.5    81.07    86.10  2218.68  2414.75
 dbt_tas_reshape                ******* 15.5   131.34   143.51  1873.41  2236.35
 dbt_tas_copy                   ******* 13.1   807.60  1611.08  1109.66  1935.35
 convert_to_new_pgrid           ******* 15.0   275.29   289.64  1329.26  1848.81
 dbt_tas_replicate              ******* 15.0   498.82   627.47  1602.76  1771.54
 dbm_copy                       ******* 16.0  1053.97  1564.17  1053.97  1564.17
 mp_comm_dup                    ******* 18.6  1123.84  1372.04  1158.07  1406.80
 dbt_tas_communicate_buffer     ******* 17.3   162.56   193.26  1087.40  1321.05
 dbt_tas_reserve_blocks_index   ******* 15.9    82.68    91.94   896.97  1311.26
 dbm_reserve_blocks             ******* 16.7   887.00  1301.75   887.00  1301.75
 mp_cart_create                 ******* 16.8  1156.77  1206.64  1222.57  1273.89
 compute_W_real_space                 1  7.0     4.09     4.53  1100.65  1100.69
 dbt_copy_nocomm                3921420 11.0   569.84   884.70   683.74  1067.31
 mp_comm_split_direct           ******* 18.1   927.63   976.06   949.16   998.57
 mp_sum_l                       ******* 15.2   608.79   892.07   608.79   892.07
 dbm_filter                     ******* 14.9   579.93   888.98   579.93   888.98
 compute_Sigma_x                      1  7.0     0.00     0.00   868.79   868.84
 dbt_tas_reshape_communicate_bu ******* 16.5    21.78    24.49   626.98   862.21
 dbt_reserve_blocks_index_array ******* 13.0    19.03    22.60   476.90   742.88
 dbt_reserve_blocks_index       ******* 14.0    27.11    31.92   462.47   728.30
 dbt_tas_reshape_buffer_obtain  ******* 16.5   353.64   506.75   491.44   678.44
 dbt_tas_reshape_buffer_fill    ******* 16.5   464.39   610.93   464.39   610.93
 dbt_tas_replicate_communicate_ ******* 15.9    16.70    20.01   443.22   574.62
 mp_alltoall_i                  ******* 15.3   361.25   572.39   361.25   572.39
 compute_Minv_and_Vsqrt               1  8.0     0.10     1.03   548.19   548.29
 build_2c_coulomb_matrix_kp_sma       2  9.0     0.81     0.88   544.93   545.04
 dbt_tas_reserve_blocks_templat ******* 14.3    64.43    70.13   401.48   516.87
 dbt_tas_create_new             ******* 15.3   467.67   496.91   467.67   496.91
 G_occ_vir                          121  8.0     0.37     0.42   418.53   420.24
 mp_comm_free                   ******* -1.4   355.76   381.22   355.76   381.22
 dbt_tas_mp_comm                ******* 13.2    28.68    34.03   354.38   380.16
 parallel_gemm_cfm               335706  8.9     0.19     0.23   339.04   377.02
 parallel_gemm_cfm_cosma         335706  9.9   338.85   376.82   338.85   376.82
 fm_to_local_array                  933  8.1    72.44    75.28   371.77   373.58
 fm_to_local_tensor              186200  9.0     2.52     2.96   232.08   367.26
 dbt_tas_replicate_alltoall     ******* 15.9     9.28    10.58   159.49   358.27
 dbt_permute_index              ******* 12.3   272.17   301.80   312.00   347.45
 mp_sum_dm3                         998  9.0   292.49   312.19   292.49   312.19
 mp_sum_dm                       163843 10.0   268.69   295.66   268.69   295.66
 dbm_add                        ******* 15.0   224.11   290.99   224.11   290.99
 dbcsr_complete_redistribute     370789 10.5     6.81    11.89   126.11   286.59
 mp_alltoall_i22                 576136 11.2   104.23   274.08   104.23   274.08
 dbt_tas_merge                  8274274 15.1   125.31   136.95   242.27   269.12
 dbt_align_index                ******* 11.5    38.37    42.70   233.20   259.67
 copy_fm_to_dbcsr                191830  9.9     0.37     0.40    64.31   228.58
 compute_QP_energies                  1  7.0     0.04     0.05   225.21   225.24
 trafo_to_k_and_nn                81435  8.0     0.33     0.38   224.99   225.02
 add_R                          ******* -2.6   145.59   152.46   205.37   213.58
 dbt_distribution_new_expert    3651446 12.4    22.10    23.96   182.96   212.96
 reshape_mm_template            3279036 15.5   108.78   136.46   174.89   203.65
 create_and_init_bs_env_for_gw        1  6.0     0.00     0.00   193.45   193.48
 dbt_reserve_blocks_template    3921420 12.0     6.70     7.63   113.89   186.81
 compute_3c_integrals                 1  7.0     0.05     0.05   172.18   172.19
 build_3c_integrals                   1  8.0    91.52   164.27    96.58   170.98
 mp_sum_dv                        89462  8.9    21.56   160.16    21.56   160.16
 build_2c_coulomb_matrix_kp_sma  163840 10.0   155.29   160.11   155.29   160.11
 mp_cart_get                    ******* -1.3   134.20   147.36   134.20   147.36
 mp_max_i                       ******* 11.6   122.14   134.53   122.14   134.53
 global_matrix_to_local_matrix   186200 10.0     1.94     3.35   109.70   134.47
 mp_comm_size                   *******  2.4   108.03   120.31   108.03   120.31
 dbt_tas_reshape_alltoall       ******* 16.5    15.38    17.87    98.23   115.29
 copy_dbcsr_to_fm                178959  9.0     0.95     1.01   108.24   111.49
 dbt_pgrid_create_expert        3651449 13.4     5.06     6.52    69.69   108.41
 is_cell_in_index_to_cell       *******  2.8   100.19   105.38   100.19   105.38
 mp_isend_dv                    ******* 17.5    78.63   100.26    78.63   100.26
 local_dbt_to_global_fm              91  8.0     0.19     0.20    98.35    98.36
 mp_bcast_i                     ******* 18.1    78.90    95.33    78.90    95.33
 fm_add_ikp_to_rs                156816  9.0    59.15    61.72    90.41    95.06
 mp_comm_rank                   *******  2.4    83.25    94.31    83.25    94.31
 dbt_create_new                 1825723 11.9    15.37    17.39    90.01    93.86
 dos_pdos_ldos                        1  5.0     0.01     0.05    88.17    88.21
 add_rs_to_ikp                  ******* 10.0    82.06    88.07    82.06    88.07
 dbt_nd_mp_comm                 1825718 11.9     3.84     4.84    45.54    87.22
 dbt_create_matrix               186200 10.0     1.12     1.16    41.70    85.43
 add_ikp_to_rs                  ******* 10.0    79.45    85.31    79.45    85.31
 add_V_L                          81920 10.0     1.72    83.45     1.72    83.45
 dbt_destroy                    ******* 11.5    68.70    74.54    76.61    82.75
 SOC_ev                            2670  6.0     0.03     0.03    80.90    80.98
 cp_cfm_heevd                      5448  7.5    80.56    80.81    80.56    80.81
 send_data                       186200 11.0     0.11     0.12    55.95    80.40
 communicate_buffer              186200 12.0     0.90    11.34    55.84    80.29
 mp_waitall_1                    814604 12.8    55.12    80.15    55.12    80.15
 dbt_tas_merge_communicate_buff 8274274 16.1     6.61     7.76    62.28    77.70
 mp_sum_i                       ******* 16.0    67.91    74.09    67.91    74.09
 mult_W_with_Minv                    30  8.0     1.00     1.11    68.97    69.83
 trafo_rs_to_ikp                   2108  8.2     1.19     1.30    59.17    62.66
 fm_MWM_R_t_to_local_tensor_W_R      30  8.0     0.02     0.03    61.18    61.19
 fm_trafo_rs_to_ikp               81435  9.0    31.22    32.91    55.31    59.18
 dbt_tas_reshape_get_coord      ******* 16.5    52.84    57.61    52.84    57.61
 dbcsr_desymmetrize_deep         205347  9.7     1.93     2.37    51.74    57.16
 add_ikp_to_all_rs                 1837  8.1     0.94     1.01    49.15    53.81
 local_dbt_to_global_mat         111475  9.0     0.39     0.41    32.27    47.00
 dbm_scale                      ******* 13.7    44.24    46.95    44.24    46.95
 get_V_tr_R                          33  9.0     0.10     0.11    43.56    44.32
 mp_isend_lm2                   ******* 18.2    34.86    43.99    34.86    43.99
 send_sizes_1                    186200 11.0     0.11     0.11    34.04    36.04
 get_data                        186200 11.0     4.62    32.01     4.88    32.33
 local_matrix_to_global_matrix   111475 10.0     0.21     0.23    16.95    32.28
 dbt_tas_merge_alltoall         8274274 16.1     6.05     7.10    28.90    31.93
 mp_irecv_lm2                   ******* 18.2    26.76    31.72    26.76    31.72
 create_and_init_bs_env               1  5.0     0.00     0.00    31.26    31.27
 compute_cfm_mo_coeff_kp_and_ei       1  6.0     0.00     0.00    31.22    31.22
 dbt_buffer_get_index           ******* -3.5    25.51    28.00    25.51    28.00
 mp_dims_create                 ******* 14.3    23.92    27.54    23.92    27.54
 mp_irecv_dv                    ******* 17.7    21.46    27.36    21.46    27.36
 mp_cart_sub                     357995 11.0    26.93    26.99    26.93    26.99
 mp_cart_rank                   ******* 10.2    12.46    26.30    12.46    26.30
 dbt_create_3c_R1_R2                 62  8.0     2.90     3.08    25.07    25.86
 dbt_create_template            3614452  9.0    24.95    25.75    24.95    25.75
 cp_cfm_geeig_canon                1335  7.0     0.01     0.01    24.54    24.61
 destroy_t_2d                        62  8.0     3.76     4.12    20.11    22.57
 dbcsr_finalize                 1816083 11.7     3.33     4.05    16.01    19.11
 power                             3565  8.1    18.35    18.94    18.35    18.94
 rsmat_to_kp                       8010  7.2     0.06     0.06    18.51    18.64
 scf_env_do_scf                       1  3.0     0.00     0.00    17.89    17.90
 scf_env_do_scf_inner_loop            4  4.0     0.00     0.00    17.89    17.90
 mp_alltoall_d11v               1728408 11.6     3.86    17.03     3.86    17.03
 qs_scf_new_mos_kp                    4  5.0     0.00     0.00    16.66    16.67
 do_general_diag_kp                   4  6.0     0.02     0.03    16.66    16.67
 dbt_distribution_destroy       3651446 12.4    10.02    11.75    12.52    14.50
 dbcsr_filter_anytype            823982 11.0     1.84     1.93    11.11    14.32
 mp_isend_im2                   ******* 13.9     7.88    12.19     7.88    12.19
 set_blocks                      111475 11.0     1.59     5.58     4.65    11.12
 rskp_transform                   13194  7.7     0.12     9.77     0.12     9.77
 mp_irecv_im2                   ******* 13.9     6.88     9.64     6.88     9.64
 send_sizes_2                    186200 11.0     0.11     0.12     7.91     9.63
 dbcsr_merge_all                 661247 12.4     5.29     6.68     7.72     8.92
 soc                                  1  5.0     0.00     0.00     8.50     8.50
 H_KS_spinor_kp                       1  6.0     0.01     0.01     8.47     8.48
 comm_data                       111475 11.0     0.20     1.48     0.73     8.05
 trafo_V_xc_R_to_kp                   1  7.0     0.01     0.01     7.83     7.86
 setup_cells_3c                       1  7.0     0.45     0.46     7.65     7.66
 comm_size                       111475 11.0     0.11     0.11     7.19     7.46
 mp_max_l                       4137161 13.6     6.54     7.26     6.54     7.26
 build_3c_integral_block           9747  8.0     1.43     1.69     6.83     7.20
 get_Minv_Vtr_Minv_R                  1  8.0     0.04     0.05     6.87     6.92
 mp_alltoall_i11v               1317714 11.4     4.01     6.62     4.01     6.62
 compute_proj_mo_on_kind           1335  6.0     0.02     0.03     6.02     6.10
 dbcsr_create_new               1166135 11.0     3.77     3.93     5.51     5.74
 abc_contract_xsmm                30176  9.0     5.19     5.55     5.19     5.55
 -------------------------------------------------------------------------------

 The number of warnings for this run is : 1
 
 -------------------------------------------------------------------------------
  **** **** ******  **  PROGRAM ENDED AT                 2024-07-16 20:46:47.904
 ***** ** ***  *** **   PROGRAM RAN ON                    n2lcn0106.ab2021.local
 **    ****   ******    PROGRAM RAN BY                                  eprop2d1
 ***** **    ** ** **   PROGRAM PROCESS ID                               3384007
  **** **  *******  **  PROGRAM STOPPED IN /scratch/hpc-prf-metdyn/eprop2d1_Jan/
                                           25_MoS2_MoSe2_WS2_WSe2_UZH_protocol/0
                                           2_MoSe2/113_as_110_36x36_kpoints_reg_
                                           RI_1E-2_trunc_7.0______________
