
     Program PWSCF v.7.0 starts on  3May2023 at 10:27:31 

     This program is part of the open-source Quantum ESPRESSO suite
     for quantum simulation of materials; please cite
         "P. Giannozzi et al., J. Phys.:Condens. Matter 21 395502 (2009);
         "P. Giannozzi et al., J. Phys.:Condens. Matter 29 465901 (2017);
         "P. Giannozzi et al., J. Chem. Phys. 152 154105 (2020);
          URL http://www.quantum-espresso.org", 
     in publications or presentations arising from this work. More details at
     http://www.quantum-espresso.org/quote

     Parallel version (MPI), running on   144 processors

     MPI processes distributed on     2 nodes
     K-points division:     npool     =       2
     R & G space division:  proc/nbgrp/npool/nimage =      72
     228838 MiB available memory on the printing compute node when the environment starts
 
     Waiting for input...
     Reading input from standard input

     Current dimensions of program PWSCF are:
     Max number of different atomic species (ntypx) = 10
     Max number of k-points (npk) =  40000
     Max angular momentum in pseudopotentials (lmaxx) =  4

     Atomic positions and unit cell read from directory:
     ./MoS2.save/
     Atomic positions from file used, from input discarded
 
     Message from routine setup:
     using ibrav=0 with symmetry is DISCOURAGED, use correct ibrav instead

     Subspace diagonalization in iterative solution of the eigenvalue problem:
     one sub-group per band group will be used
     scalapack distributed-memory algorithm (size of sub-group:  8*  8 procs)

 
     Parallelization info
     --------------------
     sticks:   dense  smooth     PW     G-vecs:    dense   smooth      PW
     Min          13      13      3                 1657     1657     233
     Max          14      14      4                 1698     1698     268
     Sum        1003    1003    283               120979   120979   18475
 
     Using Slab Decomposition
 


     bravais-lattice index     =            0
     lattice parameter (alat)  =       6.0170  a.u.
     unit-cell volume          =     896.2879 (a.u.)^3
     number of atoms/cell      =            3
     number of atomic types    =            2
     number of electrons       =        26.00
     number of Kohn-Sham states=           40
     kinetic-energy cutoff     =     100.0000  Ry
     charge density cutoff     =     400.0000  Ry
     Exchange-correlation= PBE
                           (   1   4   3   4   0   0   0)

     celldm(1)=   6.017014  celldm(2)=   0.000000  celldm(3)=   0.000000
     celldm(4)=   0.000000  celldm(5)=   0.000000  celldm(6)=   0.000000

     crystal axes: (cart. coord. in units of alat)
               a(1) = (   1.000000   0.000000   0.000000 )  
               a(2) = (  -0.500000   0.866025   0.000000 )  
               a(3) = (   0.000000   0.000000   4.750878 )  

     reciprocal axes: (cart. coord. in units 2 pi/alat)
               b(1) = (  1.000000  0.577350  0.000000 )  
               b(2) = (  0.000000  1.154701  0.000000 )  
               b(3) = (  0.000000  0.000000  0.210487 )  


     PseudoPot. # 1 for S  read from file:
     /u/danielhg/pseudo/S-nc-sr-pbe-dojo.UPF
     MD5 check sum: 6027e7704d67ae28863b2247926ce6f3
     Pseudo is Norm-conserving + core correction, Zval =  6.0
     Generated using ONCVPSP code by D. R. Hamann
     Using radial grid of 1146 points,  6 beta functions with: 
                l(1) =   0
                l(2) =   0
                l(3) =   1
                l(4) =   1
                l(5) =   2
                l(6) =   2

     PseudoPot. # 2 for Mo read from file:
     /u/danielhg/pseudo/Mo-nc-sr-pbe-dojo.UPF
     MD5 check sum: 7ca7a9feba7bf08d88d14bc7fbf60c1e
     Pseudo is Norm-conserving + core correction, Zval = 14.0
     Generated using ONCVPSP code by D. R. Hamann
     Using radial grid of 1640 points,  6 beta functions with: 
                l(1) =   0
                l(2) =   0
                l(3) =   1
                l(4) =   1
                l(5) =   2
                l(6) =   2

     atomic species   valence    mass     pseudopotential
        S              6.00    32.06500     S ( 1.00)
        Mo            14.00    95.95000     Mo( 1.00)

      6 Sym. Ops. (no inversion) found


                                    s                        frac. trans.

      isym =  1     identity                                     

 cryst.   s( 1) = (     1          0          0      )
                  (     0          1          0      )
                  (     0          0          1      )

 cart.    s( 1) = (  1.0000000 -0.0000000  0.0000000 )
                  (  0.0000000  1.0000000  0.0000000 )
                  (  0.0000000  0.0000000  1.0000000 )


      isym =  2     120 deg rotation - cryst. axis [0,0,1]       

 cryst.   s( 2) = (     0          1          0      )
                  (    -1         -1          0      )
                  (     0          0          1      )

 cart.    s( 2) = ( -0.5000000 -0.8660254  0.0000000 )
                  (  0.8660254 -0.5000000  0.0000000 )
                  (  0.0000000  0.0000000  1.0000000 )


      isym =  3     120 deg rotation - cryst. axis [0,0,-1]      

 cryst.   s( 3) = (    -1         -1          0      )
                  (     1          0          0      )
                  (     0          0          1      )

 cart.    s( 3) = ( -0.5000000  0.8660254  0.0000000 )
                  ( -0.8660254 -0.5000000  0.0000000 )
                  (  0.0000000  0.0000000  1.0000000 )


      isym =  4     inv. 180 deg rotation - cart. axis [1,0,0]   

 cryst.   s( 4) = (    -1          0          0      )
                  (     1          1          0      )
                  (     0          0          1      )

 cart.    s( 4) = ( -1.0000000 -0.0000000  0.0000000 )
                  (  0.0000000  1.0000000  0.0000000 )
                  (  0.0000000  0.0000000  1.0000000 )


      isym =  5     inv. 180 deg rotation - cryst. axis [0,1,0]  

 cryst.   s( 5) = (     1          1          0      )
                  (     0         -1          0      )
                  (     0          0          1      )

 cart.    s( 5) = (  0.5000000  0.8660254  0.0000000 )
                  (  0.8660254 -0.5000000  0.0000000 )
                  (  0.0000000  0.0000000  1.0000000 )


      isym =  6     inv. 180 deg rotation - cryst. axis [1,1,0]  

 cryst.   s( 6) = (     0         -1          0      )
                  (    -1          0          0      )
                  (     0          0          1      )

 cart.    s( 6) = (  0.5000000 -0.8660254  0.0000000 )
                  ( -0.8660254 -0.5000000  0.0000000 )
                  (  0.0000000  0.0000000  1.0000000 )


   Cartesian axes

     site n.     atom                  positions (alat units)
         1           Mo  tau(   1) = (   0.0000000   0.0000000   2.8465349  )
         2           S   tau(   2) = (   0.5000000   0.2886751   3.3375913  )
         3           S   tau(   3) = (   0.5000000   0.2886751   2.3554785  )

   Crystallographic axes

     site n.     atom                  positions (cryst. coord.)
         1           Mo  tau(   1) = (  0.0000000  0.0000000  0.5991597  )
         2           S   tau(   2) = (  0.6666667  0.3333333  0.7025209  )
         3           S   tau(   3) = (  0.6666667  0.3333333  0.4957985  )

     number of k points=   128
                       cart. coord. in units 2pi/alat
        k(    1) = (   0.0000000   0.0000000   0.0000000), wk =   0.0156250
        k(    2) = (   0.0067959   0.0117709   0.0000000), wk =   0.0156250
        k(    3) = (   0.0135918   0.0235418   0.0000000), wk =   0.0156250
        k(    4) = (   0.0203878   0.0353126   0.0000000), wk =   0.0156250
        k(    5) = (   0.0271837   0.0470835   0.0000000), wk =   0.0156250
        k(    6) = (   0.0339796   0.0588544   0.0000000), wk =   0.0156250
        k(    7) = (   0.0407755   0.0706253   0.0000000), wk =   0.0156250
        k(    8) = (   0.0475714   0.0823961   0.0000000), wk =   0.0156250
        k(    9) = (   0.0543673   0.0941670   0.0000000), wk =   0.0156250
        k(   10) = (   0.0611633   0.1059379   0.0000000), wk =   0.0156250
        k(   11) = (   0.0679592   0.1177088   0.0000000), wk =   0.0156250
        k(   12) = (   0.0747551   0.1294796   0.0000000), wk =   0.0156250
        k(   13) = (   0.0815510   0.1412505   0.0000000), wk =   0.0156250
        k(   14) = (   0.0883469   0.1530214   0.0000000), wk =   0.0156250
        k(   15) = (   0.0951429   0.1647923   0.0000000), wk =   0.0156250
        k(   16) = (   0.1019388   0.1765631   0.0000000), wk =   0.0156250
        k(   17) = (   0.1087347   0.1883340   0.0000000), wk =   0.0156250
        k(   18) = (   0.1155306   0.2001049   0.0000000), wk =   0.0156250
        k(   19) = (   0.1223265   0.2118758   0.0000000), wk =   0.0156250
        k(   20) = (   0.1291224   0.2236466   0.0000000), wk =   0.0156250
        k(   21) = (   0.1359184   0.2354175   0.0000000), wk =   0.0156250
        k(   22) = (   0.1427143   0.2471884   0.0000000), wk =   0.0156250
        k(   23) = (   0.1495102   0.2589593   0.0000000), wk =   0.0156250
        k(   24) = (   0.1563061   0.2707301   0.0000000), wk =   0.0156250
        k(   25) = (   0.1631020   0.2825010   0.0000000), wk =   0.0156250
        k(   26) = (   0.1698980   0.2942719   0.0000000), wk =   0.0156250
        k(   27) = (   0.1766939   0.3060428   0.0000000), wk =   0.0156250
        k(   28) = (   0.1834898   0.3178136   0.0000000), wk =   0.0156250
        k(   29) = (   0.1902857   0.3295845   0.0000000), wk =   0.0156250
        k(   30) = (   0.1970816   0.3413554   0.0000000), wk =   0.0156250
        k(   31) = (   0.2038776   0.3531263   0.0000000), wk =   0.0156250
        k(   32) = (   0.2106735   0.3648972   0.0000000), wk =   0.0156250
        k(   33) = (   0.2174694   0.3766680   0.0000000), wk =   0.0156250
        k(   34) = (   0.2242653   0.3884389   0.0000000), wk =   0.0156250
        k(   35) = (   0.2310612   0.4002098   0.0000000), wk =   0.0156250
        k(   36) = (   0.2378571   0.4119807   0.0000000), wk =   0.0156250
        k(   37) = (   0.2446531   0.4237515   0.0000000), wk =   0.0156250
        k(   38) = (   0.2514490   0.4355224   0.0000000), wk =   0.0156250
        k(   39) = (   0.2582449   0.4472933   0.0000000), wk =   0.0156250
        k(   40) = (   0.2650408   0.4590642   0.0000000), wk =   0.0156250
        k(   41) = (   0.2718367   0.4708350   0.0000000), wk =   0.0156250
        k(   42) = (   0.2786327   0.4826059   0.0000000), wk =   0.0156250
        k(   43) = (   0.2854286   0.4943768   0.0000000), wk =   0.0156250
        k(   44) = (   0.2922245   0.5061477   0.0000000), wk =   0.0156250
        k(   45) = (   0.2990204   0.5179185   0.0000000), wk =   0.0156250
        k(   46) = (   0.3058163   0.5296894   0.0000000), wk =   0.0156250
        k(   47) = (   0.3126122   0.5414603   0.0000000), wk =   0.0156250
        k(   48) = (   0.3194082   0.5532312   0.0000000), wk =   0.0156250
        k(   49) = (   0.3262041   0.5650020   0.0000000), wk =   0.0156250
        k(   50) = (   0.3330000   0.5767729   0.0000000), wk =   0.0156250
        k(   51) = (   0.3387586   0.5668385   0.0000000), wk =   0.0156250
        k(   52) = (   0.3445172   0.5569041   0.0000000), wk =   0.0156250
        k(   53) = (   0.3502759   0.5469697   0.0000000), wk =   0.0156250
        k(   54) = (   0.3560345   0.5370353   0.0000000), wk =   0.0156250
        k(   55) = (   0.3617931   0.5271009   0.0000000), wk =   0.0156250
        k(   56) = (   0.3675517   0.5171665   0.0000000), wk =   0.0156250
        k(   57) = (   0.3733103   0.5072321   0.0000000), wk =   0.0156250
        k(   58) = (   0.3790690   0.4972977   0.0000000), wk =   0.0156250
        k(   59) = (   0.3848276   0.4873633   0.0000000), wk =   0.0156250
        k(   60) = (   0.3905862   0.4774289   0.0000000), wk =   0.0156250
        k(   61) = (   0.3963448   0.4674944   0.0000000), wk =   0.0156250
        k(   62) = (   0.4021034   0.4575600   0.0000000), wk =   0.0156250
        k(   63) = (   0.4078621   0.4476256   0.0000000), wk =   0.0156250
        k(   64) = (   0.4136207   0.4376912   0.0000000), wk =   0.0156250
        k(   65) = (   0.4193793   0.4277568   0.0000000), wk =   0.0156250
        k(   66) = (   0.4251379   0.4178224   0.0000000), wk =   0.0156250
        k(   67) = (   0.4308966   0.4078880   0.0000000), wk =   0.0156250
        k(   68) = (   0.4366552   0.3979536   0.0000000), wk =   0.0156250
        k(   69) = (   0.4424138   0.3880192   0.0000000), wk =   0.0156250
        k(   70) = (   0.4481724   0.3780848   0.0000000), wk =   0.0156250
        k(   71) = (   0.4539310   0.3681504   0.0000000), wk =   0.0156250
        k(   72) = (   0.4596897   0.3582160   0.0000000), wk =   0.0156250
        k(   73) = (   0.4654483   0.3482816   0.0000000), wk =   0.0156250
        k(   74) = (   0.4712069   0.3383472   0.0000000), wk =   0.0156250
        k(   75) = (   0.4769655   0.3284128   0.0000000), wk =   0.0156250
        k(   76) = (   0.4827241   0.3184784   0.0000000), wk =   0.0156250
        k(   77) = (   0.4884828   0.3085439   0.0000000), wk =   0.0156250
        k(   78) = (   0.4942414   0.2986095   0.0000000), wk =   0.0156250
        k(   79) = (   0.5000000   0.2886751   0.0000000), wk =   0.0156250
        k(   80) = (   0.4897959   0.2827838   0.0000000), wk =   0.0156250
        k(   81) = (   0.4795918   0.2768925   0.0000000), wk =   0.0156250
        k(   82) = (   0.4693878   0.2710011   0.0000000), wk =   0.0156250
        k(   83) = (   0.4591837   0.2651098   0.0000000), wk =   0.0156250
        k(   84) = (   0.4489796   0.2592185   0.0000000), wk =   0.0156250
        k(   85) = (   0.4387755   0.2533272   0.0000000), wk =   0.0156250
        k(   86) = (   0.4285714   0.2474358   0.0000000), wk =   0.0156250
        k(   87) = (   0.4183673   0.2415445   0.0000000), wk =   0.0156250
        k(   88) = (   0.4081633   0.2356532   0.0000000), wk =   0.0156250
        k(   89) = (   0.3979592   0.2297618   0.0000000), wk =   0.0156250
        k(   90) = (   0.3877551   0.2238705   0.0000000), wk =   0.0156250
        k(   91) = (   0.3775510   0.2179792   0.0000000), wk =   0.0156250
        k(   92) = (   0.3673469   0.2120879   0.0000000), wk =   0.0156250
        k(   93) = (   0.3571429   0.2061965   0.0000000), wk =   0.0156250
        k(   94) = (   0.3469388   0.2003052   0.0000000), wk =   0.0156250
        k(   95) = (   0.3367347   0.1944139   0.0000000), wk =   0.0156250
        k(   96) = (   0.3265306   0.1885225   0.0000000), wk =   0.0156250
        k(   97) = (   0.3163265   0.1826312   0.0000000), wk =   0.0156250
        k(   98) = (   0.3061224   0.1767399   0.0000000), wk =   0.0156250
        k(   99) = (   0.2959184   0.1708485   0.0000000), wk =   0.0156250
        k(  100) = (   0.2857143   0.1649572   0.0000000), wk =   0.0156250
        k(  101) = (   0.2755102   0.1590659   0.0000000), wk =   0.0156250
        k(  102) = (   0.2653061   0.1531746   0.0000000), wk =   0.0156250
        k(  103) = (   0.2551020   0.1472832   0.0000000), wk =   0.0156250
        k(  104) = (   0.2448980   0.1413919   0.0000000), wk =   0.0156250
        k(  105) = (   0.2346939   0.1355006   0.0000000), wk =   0.0156250
        k(  106) = (   0.2244898   0.1296092   0.0000000), wk =   0.0156250
        k(  107) = (   0.2142857   0.1237179   0.0000000), wk =   0.0156250
        k(  108) = (   0.2040816   0.1178266   0.0000000), wk =   0.0156250
        k(  109) = (   0.1938776   0.1119353   0.0000000), wk =   0.0156250
        k(  110) = (   0.1836735   0.1060439   0.0000000), wk =   0.0156250
        k(  111) = (   0.1734694   0.1001526   0.0000000), wk =   0.0156250
        k(  112) = (   0.1632653   0.0942613   0.0000000), wk =   0.0156250
        k(  113) = (   0.1530612   0.0883699   0.0000000), wk =   0.0156250
        k(  114) = (   0.1428571   0.0824786   0.0000000), wk =   0.0156250
        k(  115) = (   0.1326531   0.0765873   0.0000000), wk =   0.0156250
        k(  116) = (   0.1224490   0.0706960   0.0000000), wk =   0.0156250
        k(  117) = (   0.1122449   0.0648046   0.0000000), wk =   0.0156250
        k(  118) = (   0.1020408   0.0589133   0.0000000), wk =   0.0156250
        k(  119) = (   0.0918367   0.0530220   0.0000000), wk =   0.0156250
        k(  120) = (   0.0816327   0.0471306   0.0000000), wk =   0.0156250
        k(  121) = (   0.0714286   0.0412393   0.0000000), wk =   0.0156250
        k(  122) = (   0.0612245   0.0353480   0.0000000), wk =   0.0156250
        k(  123) = (   0.0510204   0.0294566   0.0000000), wk =   0.0156250
        k(  124) = (   0.0408163   0.0235653   0.0000000), wk =   0.0156250
        k(  125) = (   0.0306122   0.0176740   0.0000000), wk =   0.0156250
        k(  126) = (   0.0204082   0.0117827   0.0000000), wk =   0.0156250
        k(  127) = (   0.0102041   0.0058913   0.0000000), wk =   0.0156250
        k(  128) = (   0.0000000   0.0000000   0.0000000), wk =   0.0156250

                       cryst. coord.
        k(    1) = (   0.0000000   0.0000000   0.0000000), wk =   0.0156250
        k(    2) = (   0.0067959   0.0067959   0.0000000), wk =   0.0156250
        k(    3) = (   0.0135918   0.0135918   0.0000000), wk =   0.0156250
        k(    4) = (   0.0203878   0.0203878   0.0000000), wk =   0.0156250
        k(    5) = (   0.0271837   0.0271837   0.0000000), wk =   0.0156250
        k(    6) = (   0.0339796   0.0339796   0.0000000), wk =   0.0156250
        k(    7) = (   0.0407755   0.0407755   0.0000000), wk =   0.0156250
        k(    8) = (   0.0475714   0.0475714   0.0000000), wk =   0.0156250
        k(    9) = (   0.0543673   0.0543673   0.0000000), wk =   0.0156250
        k(   10) = (   0.0611633   0.0611633   0.0000000), wk =   0.0156250
        k(   11) = (   0.0679592   0.0679592   0.0000000), wk =   0.0156250
        k(   12) = (   0.0747551   0.0747551   0.0000000), wk =   0.0156250
        k(   13) = (   0.0815510   0.0815510   0.0000000), wk =   0.0156250
        k(   14) = (   0.0883469   0.0883469   0.0000000), wk =   0.0156250
        k(   15) = (   0.0951429   0.0951429   0.0000000), wk =   0.0156250
        k(   16) = (   0.1019388   0.1019388   0.0000000), wk =   0.0156250
        k(   17) = (   0.1087347   0.1087347   0.0000000), wk =   0.0156250
        k(   18) = (   0.1155306   0.1155306   0.0000000), wk =   0.0156250
        k(   19) = (   0.1223265   0.1223265   0.0000000), wk =   0.0156250
        k(   20) = (   0.1291224   0.1291224   0.0000000), wk =   0.0156250
        k(   21) = (   0.1359184   0.1359184   0.0000000), wk =   0.0156250
        k(   22) = (   0.1427143   0.1427143   0.0000000), wk =   0.0156250
        k(   23) = (   0.1495102   0.1495102   0.0000000), wk =   0.0156250
        k(   24) = (   0.1563061   0.1563061   0.0000000), wk =   0.0156250
        k(   25) = (   0.1631020   0.1631020   0.0000000), wk =   0.0156250
        k(   26) = (   0.1698980   0.1698980   0.0000000), wk =   0.0156250
        k(   27) = (   0.1766939   0.1766939   0.0000000), wk =   0.0156250
        k(   28) = (   0.1834898   0.1834898   0.0000000), wk =   0.0156250
        k(   29) = (   0.1902857   0.1902857   0.0000000), wk =   0.0156250
        k(   30) = (   0.1970816   0.1970816   0.0000000), wk =   0.0156250
        k(   31) = (   0.2038776   0.2038776   0.0000000), wk =   0.0156250
        k(   32) = (   0.2106735   0.2106735   0.0000000), wk =   0.0156250
        k(   33) = (   0.2174694   0.2174694   0.0000000), wk =   0.0156250
        k(   34) = (   0.2242653   0.2242653   0.0000000), wk =   0.0156250
        k(   35) = (   0.2310612   0.2310612   0.0000000), wk =   0.0156250
        k(   36) = (   0.2378571   0.2378571   0.0000000), wk =   0.0156250
        k(   37) = (   0.2446531   0.2446531   0.0000000), wk =   0.0156250
        k(   38) = (   0.2514490   0.2514490   0.0000000), wk =   0.0156250
        k(   39) = (   0.2582449   0.2582449   0.0000000), wk =   0.0156250
        k(   40) = (   0.2650408   0.2650408   0.0000000), wk =   0.0156250
        k(   41) = (   0.2718367   0.2718367   0.0000000), wk =   0.0156250
        k(   42) = (   0.2786327   0.2786327   0.0000000), wk =   0.0156250
        k(   43) = (   0.2854286   0.2854286   0.0000000), wk =   0.0156250
        k(   44) = (   0.2922245   0.2922245   0.0000000), wk =   0.0156250
        k(   45) = (   0.2990204   0.2990204   0.0000000), wk =   0.0156250
        k(   46) = (   0.3058163   0.3058163   0.0000000), wk =   0.0156250
        k(   47) = (   0.3126122   0.3126122   0.0000000), wk =   0.0156250
        k(   48) = (   0.3194082   0.3194082   0.0000000), wk =   0.0156250
        k(   49) = (   0.3262041   0.3262041   0.0000000), wk =   0.0156250
        k(   50) = (   0.3330000   0.3330000   0.0000000), wk =   0.0156250
        k(   51) = (   0.3387586   0.3215172   0.0000000), wk =   0.0156250
        k(   52) = (   0.3445172   0.3100345   0.0000000), wk =   0.0156250
        k(   53) = (   0.3502759   0.2985517   0.0000000), wk =   0.0156250
        k(   54) = (   0.3560345   0.2870690   0.0000000), wk =   0.0156250
        k(   55) = (   0.3617931   0.2755862   0.0000000), wk =   0.0156250
        k(   56) = (   0.3675517   0.2641034   0.0000000), wk =   0.0156250
        k(   57) = (   0.3733103   0.2526207   0.0000000), wk =   0.0156250
        k(   58) = (   0.3790690   0.2411379   0.0000000), wk =   0.0156250
        k(   59) = (   0.3848276   0.2296552   0.0000000), wk =   0.0156250
        k(   60) = (   0.3905862   0.2181724   0.0000000), wk =   0.0156250
        k(   61) = (   0.3963448   0.2066897   0.0000000), wk =   0.0156250
        k(   62) = (   0.4021034   0.1952069   0.0000000), wk =   0.0156250
        k(   63) = (   0.4078621   0.1837241   0.0000000), wk =   0.0156250
        k(   64) = (   0.4136207   0.1722414   0.0000000), wk =   0.0156250
        k(   65) = (   0.4193793   0.1607586   0.0000000), wk =   0.0156250
        k(   66) = (   0.4251379   0.1492759   0.0000000), wk =   0.0156250
        k(   67) = (   0.4308966   0.1377931   0.0000000), wk =   0.0156250
        k(   68) = (   0.4366552   0.1263103   0.0000000), wk =   0.0156250
        k(   69) = (   0.4424138   0.1148276   0.0000000), wk =   0.0156250
        k(   70) = (   0.4481724   0.1033448   0.0000000), wk =   0.0156250
        k(   71) = (   0.4539310   0.0918621   0.0000000), wk =   0.0156250
        k(   72) = (   0.4596897   0.0803793   0.0000000), wk =   0.0156250
        k(   73) = (   0.4654483   0.0688966   0.0000000), wk =   0.0156250
        k(   74) = (   0.4712069   0.0574138   0.0000000), wk =   0.0156250
        k(   75) = (   0.4769655   0.0459310   0.0000000), wk =   0.0156250
        k(   76) = (   0.4827241   0.0344483   0.0000000), wk =   0.0156250
        k(   77) = (   0.4884828   0.0229655   0.0000000), wk =   0.0156250
        k(   78) = (   0.4942414   0.0114828   0.0000000), wk =   0.0156250
        k(   79) = (   0.5000000   0.0000000   0.0000000), wk =   0.0156250
        k(   80) = (   0.4897959  -0.0000000   0.0000000), wk =   0.0156250
        k(   81) = (   0.4795918   0.0000000   0.0000000), wk =   0.0156250
        k(   82) = (   0.4693878   0.0000000   0.0000000), wk =   0.0156250
        k(   83) = (   0.4591837   0.0000000   0.0000000), wk =   0.0156250
        k(   84) = (   0.4489796   0.0000000   0.0000000), wk =   0.0156250
        k(   85) = (   0.4387755   0.0000000   0.0000000), wk =   0.0156250
        k(   86) = (   0.4285714   0.0000000   0.0000000), wk =   0.0156250
        k(   87) = (   0.4183673   0.0000000   0.0000000), wk =   0.0156250
        k(   88) = (   0.4081633   0.0000000   0.0000000), wk =   0.0156250
        k(   89) = (   0.3979592   0.0000000   0.0000000), wk =   0.0156250
        k(   90) = (   0.3877551   0.0000000   0.0000000), wk =   0.0156250
        k(   91) = (   0.3775510  -0.0000000   0.0000000), wk =   0.0156250
        k(   92) = (   0.3673469  -0.0000000   0.0000000), wk =   0.0156250
        k(   93) = (   0.3571429   0.0000000   0.0000000), wk =   0.0156250
        k(   94) = (   0.3469388   0.0000000   0.0000000), wk =   0.0156250
        k(   95) = (   0.3367347   0.0000000   0.0000000), wk =   0.0156250
        k(   96) = (   0.3265306   0.0000000   0.0000000), wk =   0.0156250
        k(   97) = (   0.3163265   0.0000000   0.0000000), wk =   0.0156250
        k(   98) = (   0.3061224   0.0000000   0.0000000), wk =   0.0156250
        k(   99) = (   0.2959184   0.0000000   0.0000000), wk =   0.0156250
        k(  100) = (   0.2857143   0.0000000   0.0000000), wk =   0.0156250
        k(  101) = (   0.2755102  -0.0000000   0.0000000), wk =   0.0156250
        k(  102) = (   0.2653061  -0.0000000   0.0000000), wk =   0.0156250
        k(  103) = (   0.2551020   0.0000000   0.0000000), wk =   0.0156250
        k(  104) = (   0.2448980  -0.0000000   0.0000000), wk =   0.0156250
        k(  105) = (   0.2346939  -0.0000000   0.0000000), wk =   0.0156250
        k(  106) = (   0.2244898   0.0000000   0.0000000), wk =   0.0156250
        k(  107) = (   0.2142857   0.0000000   0.0000000), wk =   0.0156250
        k(  108) = (   0.2040816   0.0000000   0.0000000), wk =   0.0156250
        k(  109) = (   0.1938776   0.0000000   0.0000000), wk =   0.0156250
        k(  110) = (   0.1836735  -0.0000000   0.0000000), wk =   0.0156250
        k(  111) = (   0.1734694   0.0000000   0.0000000), wk =   0.0156250
        k(  112) = (   0.1632653   0.0000000   0.0000000), wk =   0.0156250
        k(  113) = (   0.1530612   0.0000000   0.0000000), wk =   0.0156250
        k(  114) = (   0.1428571   0.0000000   0.0000000), wk =   0.0156250
        k(  115) = (   0.1326531  -0.0000000   0.0000000), wk =   0.0156250
        k(  116) = (   0.1224490  -0.0000000   0.0000000), wk =   0.0156250
        k(  117) = (   0.1122449   0.0000000   0.0000000), wk =   0.0156250
        k(  118) = (   0.1020408   0.0000000   0.0000000), wk =   0.0156250
        k(  119) = (   0.0918367   0.0000000   0.0000000), wk =   0.0156250
        k(  120) = (   0.0816327   0.0000000   0.0000000), wk =   0.0156250
        k(  121) = (   0.0714286   0.0000000   0.0000000), wk =   0.0156250
        k(  122) = (   0.0612245  -0.0000000   0.0000000), wk =   0.0156250
        k(  123) = (   0.0510204   0.0000000   0.0000000), wk =   0.0156250
        k(  124) = (   0.0408163   0.0000000   0.0000000), wk =   0.0156250
        k(  125) = (   0.0306122  -0.0000000   0.0000000), wk =   0.0156250
        k(  126) = (   0.0204082   0.0000000   0.0000000), wk =   0.0156250
        k(  127) = (   0.0102041   0.0000000   0.0000000), wk =   0.0156250
        k(  128) = (   0.0000000   0.0000000   0.0000000), wk =   0.0156250

     Dense  grid:   120979 G-vectors     FFT dimensions: (  40,  40, 192)

     Dynamical RAM for                 wfc:       0.13 MB

     Dynamical RAM for     wfc (w. buffer):       8.33 MB

     Dynamical RAM for           str. fact:       0.05 MB

     Dynamical RAM for           local pot:       0.00 MB

     Dynamical RAM for          nlocal pot:       0.17 MB

     Dynamical RAM for                qrad:       3.21 MB

     Dynamical RAM for          rho,v,vnew:       0.19 MB

     Dynamical RAM for           G-vectors:       0.11 MB

     Dynamical RAM for          h,s,v(r/c):       0.00 MB

     Dynamical RAM for          <psi|beta>:       0.03 MB

     Dynamical RAM for                 psi:       0.26 MB

     Dynamical RAM for                hpsi:       0.26 MB

     Dynamical RAM for      wfcinit/wfcrot:       0.29 MB

     Estimated static dynamical RAM per process >      12.33 MB

     Estimated max dynamical RAM per process >      12.88 MB

     Estimated total dynamical RAM >       1.81 GB

     The potential is recalculated from file :
     ./MoS2.save/charge-density

     Starting wfcs are random

     Band Structure Calculation
     Davidson diagonalization with overlap

     Computing kpt #:     1  of    64 on this pool
     total cpu time spent up to now is        1.9 secs

     Computing kpt #:     2  of    64 on this pool
     total cpu time spent up to now is        2.4 secs

     Computing kpt #:     3  of    64 on this pool
     total cpu time spent up to now is        2.8 secs

     Computing kpt #:     4  of    64 on this pool
     total cpu time spent up to now is        3.3 secs

     Computing kpt #:     5  of    64 on this pool
     total cpu time spent up to now is        3.7 secs

     Computing kpt #:     6  of    64 on this pool
     total cpu time spent up to now is        4.2 secs

     Computing kpt #:     7  of    64 on this pool
     total cpu time spent up to now is        4.7 secs

     Computing kpt #:     8  of    64 on this pool
     total cpu time spent up to now is        5.3 secs

     Computing kpt #:     9  of    64 on this pool
     total cpu time spent up to now is        5.8 secs

     Computing kpt #:    10  of    64 on this pool
     total cpu time spent up to now is        6.3 secs

     Computing kpt #:    11  of    64 on this pool
     total cpu time spent up to now is        6.8 secs

     Computing kpt #:    12  of    64 on this pool
     total cpu time spent up to now is        7.4 secs

     Computing kpt #:    13  of    64 on this pool
     total cpu time spent up to now is        8.0 secs

     Computing kpt #:    14  of    64 on this pool
     total cpu time spent up to now is        8.5 secs

     Computing kpt #:    15  of    64 on this pool
     total cpu time spent up to now is        9.0 secs

     Computing kpt #:    16  of    64 on this pool
     total cpu time spent up to now is        9.5 secs

     Computing kpt #:    17  of    64 on this pool
     total cpu time spent up to now is       10.0 secs

     Computing kpt #:    18  of    64 on this pool
     total cpu time spent up to now is       10.4 secs

     Computing kpt #:    19  of    64 on this pool
     total cpu time spent up to now is       11.0 secs

     Computing kpt #:    20  of    64 on this pool
     total cpu time spent up to now is       11.5 secs

     Computing kpt #:    21  of    64 on this pool
     total cpu time spent up to now is       12.0 secs

     Computing kpt #:    22  of    64 on this pool
     total cpu time spent up to now is       12.4 secs

     Computing kpt #:    23  of    64 on this pool
     total cpu time spent up to now is       12.9 secs

     Computing kpt #:    24  of    64 on this pool
     total cpu time spent up to now is       13.4 secs

     Computing kpt #:    25  of    64 on this pool
     total cpu time spent up to now is       13.9 secs

     Computing kpt #:    26  of    64 on this pool
     total cpu time spent up to now is       14.4 secs

     Computing kpt #:    27  of    64 on this pool
     total cpu time spent up to now is       14.8 secs

     Computing kpt #:    28  of    64 on this pool
     total cpu time spent up to now is       15.3 secs

     Computing kpt #:    29  of    64 on this pool
     total cpu time spent up to now is       15.8 secs

     Computing kpt #:    30  of    64 on this pool
     total cpu time spent up to now is       16.3 secs

     Computing kpt #:    31  of    64 on this pool
     total cpu time spent up to now is       16.9 secs

     Computing kpt #:    32  of    64 on this pool
     total cpu time spent up to now is       17.6 secs

     Computing kpt #:    33  of    64 on this pool
     total cpu time spent up to now is       18.3 secs

     Computing kpt #:    34  of    64 on this pool
     total cpu time spent up to now is       19.0 secs

     Computing kpt #:    35  of    64 on this pool
     total cpu time spent up to now is       19.7 secs

     Computing kpt #:    36  of    64 on this pool
     total cpu time spent up to now is       20.4 secs

     Computing kpt #:    37  of    64 on this pool
     total cpu time spent up to now is       21.1 secs

     Computing kpt #:    38  of    64 on this pool
     total cpu time spent up to now is       21.6 secs

     Computing kpt #:    39  of    64 on this pool
     total cpu time spent up to now is       22.2 secs

     Computing kpt #:    40  of    64 on this pool
     total cpu time spent up to now is       22.7 secs

     Computing kpt #:    41  of    64 on this pool
     total cpu time spent up to now is       23.1 secs

     Computing kpt #:    42  of    64 on this pool
     total cpu time spent up to now is       23.6 secs

     Computing kpt #:    43  of    64 on this pool
     total cpu time spent up to now is       24.1 secs

     Computing kpt #:    44  of    64 on this pool
     total cpu time spent up to now is       24.6 secs

     Computing kpt #:    45  of    64 on this pool
     total cpu time spent up to now is       25.2 secs

     Computing kpt #:    46  of    64 on this pool
     total cpu time spent up to now is       25.8 secs

     Computing kpt #:    47  of    64 on this pool
     total cpu time spent up to now is       26.2 secs

     Computing kpt #:    48  of    64 on this pool
     total cpu time spent up to now is       26.7 secs

     Computing kpt #:    49  of    64 on this pool
     total cpu time spent up to now is       27.3 secs

     Computing kpt #:    50  of    64 on this pool
     total cpu time spent up to now is       27.9 secs

     Computing kpt #:    51  of    64 on this pool
     total cpu time spent up to now is       28.5 secs

     Computing kpt #:    52  of    64 on this pool
     total cpu time spent up to now is       29.0 secs

     Computing kpt #:    53  of    64 on this pool
     total cpu time spent up to now is       29.5 secs

     Computing kpt #:    54  of    64 on this pool
     total cpu time spent up to now is       30.1 secs

     Computing kpt #:    55  of    64 on this pool
     total cpu time spent up to now is       30.6 secs

     Computing kpt #:    56  of    64 on this pool
     total cpu time spent up to now is       31.1 secs

     Computing kpt #:    57  of    64 on this pool
     total cpu time spent up to now is       31.6 secs

     Computing kpt #:    58  of    64 on this pool
     total cpu time spent up to now is       32.0 secs

     Computing kpt #:    59  of    64 on this pool
     total cpu time spent up to now is       32.5 secs

     Computing kpt #:    60  of    64 on this pool
     total cpu time spent up to now is       33.0 secs

     Computing kpt #:    61  of    64 on this pool
     total cpu time spent up to now is       33.5 secs

     Computing kpt #:    62  of    64 on this pool
     total cpu time spent up to now is       34.0 secs

     Computing kpt #:    63  of    64 on this pool
     total cpu time spent up to now is       34.4 secs

     Computing kpt #:    64  of    64 on this pool
     total cpu time spent up to now is       34.8 secs

     ethr =  3.85E-12,  avg # of iterations = 61.1

     total cpu time spent up to now is       34.8 secs

     End of band structure calculation

          k = 0.0000 0.0000 0.0000 ( 15211 PWs)   bands (ev):

   -60.2597 -34.3970 -34.1895 -34.1895 -13.4489 -12.1500  -4.9668  -1.9753
    -1.9753  -1.1398  -0.8728  -0.8728   0.6242   3.3835   3.3835   3.6272
     3.6272   5.9488   6.4700   6.8719   7.9951   9.6306  10.1210  11.3811
    11.3811  11.7669  13.3880  13.3880  13.6568  15.4228  16.6069  16.6069
    16.7665  16.8144  16.8144  16.8581  19.7629  20.3339  22.1767  22.6177

          k = 0.0068 0.0118 0.0000 ( 15201 PWs)   bands (ev):

   -60.2596 -34.3969 -34.1900 -34.1896 -13.4468 -12.1491  -4.9644  -1.9801
    -1.9731  -1.1627  -0.8763  -0.8528   0.6233   3.3800   3.3874   3.6206
     3.6247   5.9530   6.4727   6.8812   7.9982   9.6406  10.1234  11.3671
    11.3877  11.7783  13.3690  13.3886  13.6549  15.4232  16.5906  16.6105
    16.7325  16.8067  16.8507  16.8846  19.7695  20.3550  22.1795  22.6035

          k = 0.0136 0.0235 0.0000 ( 15221 PWs)   bands (ev):

   -60.2595 -34.3966 -34.1915 -34.1899 -13.4406 -12.1466  -4.9572  -1.9946
    -1.9666  -1.2180  -0.8867  -0.8062   0.6207   3.3696   3.3988   3.6013
     3.6174   5.9652   6.4808   6.9090   8.0075   9.6703  10.1308  11.3291
    11.4074  11.8083  13.3140  13.3907  13.6491  15.4242  16.5468  16.6202
    16.6834  16.7837  16.9065  16.9598  19.7894  20.4172  22.1875  22.5628

          k = 0.0204 0.0353 0.0000 ( 15229 PWs)   bands (ev):

   -60.2592 -34.3961 -34.1941 -34.1905 -13.4304 -12.1423  -4.9452  -2.0186
    -1.9559  -1.2887  -0.9042  -0.7499   0.6161   3.3530   3.4178   3.5701
     3.6053   5.9849   6.4942   6.9549   8.0231   9.7189  10.1431  11.2750
    11.4397  11.8499  13.2274  13.3939  13.6390  15.4249  16.4838  16.6332
    16.6339  16.7455  16.9682  17.0772  19.8224  20.5168  22.2010  22.4998

          k = 0.0272 0.0471 0.0000 ( 15225 PWs)   bands (ev):

   -60.2589 -34.3954 -34.1977 -34.1913 -13.4160 -12.1364  -4.9287  -2.0514
    -1.9409  -1.3668  -0.9289  -0.6918   0.6094   3.3309   3.4441   3.5285
     3.5885   6.0114   6.5130   7.0181   8.0450   9.7849  10.1605  11.2110
    11.4839  11.8976  13.1155  13.3982  13.6242  15.4237  16.4087  16.5816
    16.6506  16.6930  17.0355  17.2310  19.8687  20.6489  22.2195  22.4194

          k = 0.0340 0.0589 0.0000 ( 15225 PWs)   bands (ev):

   -60.2584 -34.3945 -34.2022 -34.1924 -13.3977 -12.1289  -4.9076  -2.0928
    -1.9218  -1.4487  -0.9607  -0.6353   0.6004   3.3047   3.4775   3.4781
     3.5671   6.0439   6.5369   7.0977   8.0733   9.8663  10.1834  11.1410
    11.5388  11.9486  12.9849  13.4031  13.6041  15.4180  16.3289  16.5256
    16.6294  16.6702  17.1091  17.4154  19.9278  20.8074  22.2428  22.3254

          k = 0.0408 0.0706 0.0000 ( 15217 PWs)   bands (ev):

   -60.2579 -34.3935 -34.2077 -34.1937 -13.3754 -12.1197  -4.8821  -2.1419
    -1.8986  -1.5328  -1.0000  -0.5819   0.5886   3.2756   3.4210   3.5177
     3.5414   6.0819   6.5661   7.1922   8.1082   9.9600  10.2127  11.0674
    11.6031  12.0018  12.8417  13.4084  13.5785  15.4048  16.2529  16.4571
    16.5630  16.6928  17.1895  17.6247  19.9992  20.9861  22.2202  22.2698

          k = 0.0476 0.0824 0.0000 ( 15213 PWs)   bands (ev):

   -60.2572 -34.3922 -34.2141 -34.1952 -13.3492 -12.1089  -4.8525  -2.1979
    -1.8716  -1.6178  -1.0467  -0.5324   0.5738   3.2450   3.3590   3.5117
     3.5644   6.1246   6.6005   7.3001   8.1501  10.0607  10.2511  10.9920
    11.6747  12.0569  12.6911  13.4134  13.5478  15.3805  16.1889  16.3651
    16.5053  16.7185  17.2774  17.8539  20.0820  21.1781  22.1044  22.2963

          k = 0.0544 0.0942 0.0000 ( 15217 PWs)   bands (ev):

   -60.2565 -34.3908 -34.2213 -34.1970 -13.3192 -12.0965  -4.8190  -2.2602
    -1.8408  -1.7031  -1.1008  -0.4874   0.5554   3.2144   3.2940   3.4784
     3.6170   6.1719   6.6399   7.4190   8.1996  10.1577  10.3064  10.9160
    11.7510  12.1143  12.5381  13.4173  13.5129  15.3430  16.1435  16.2479
    16.4586  16.7474  17.3730  18.0990  20.1739  21.3742  21.9770  22.2916

          k = 0.0612 0.1059 0.0000 ( 15199 PWs)   bands (ev):

   -60.2557 -34.3892 -34.2294 -34.1990 -13.2854 -12.0826  -4.7820  -2.3276
    -1.8066  -1.7881  -1.1625  -0.4470   0.5331   3.1850   3.2277   3.4419
     3.6750   6.2233   6.6843   7.5466   8.2575  10.2351  10.3906  10.8402
    11.8289  12.1743  12.3868  13.4193  13.4757  15.2936  16.1098  16.1200
    16.4194  16.7794  17.4765  18.3562  20.2712  21.5578  21.8361  22.0987

          k = 0.0680 0.1177 0.0000 ( 15203 PWs)   bands (ev):

   -60.2548 -34.3874 -34.2382 -34.2013 -13.2481 -12.0672  -4.7417  -2.3993
    -1.8723  -1.7692  -1.2314  -0.4115   0.5065   3.1580   3.1616   3.4028
     3.7380   6.2789   6.7335   7.6797   8.3254  10.2926  10.4999  10.7654
    11.9047  12.2369  12.2418  13.4182  13.4394  15.2367  15.9544  16.1173
    16.3855  16.8145  17.5879  18.6228  20.3666  21.6792  21.6793  21.8209

          k = 0.0748 0.1295 0.0000 ( 15215 PWs)   bands (ev):

   -60.2539 -34.3855 -34.2477 -34.2038 -13.2073 -12.0503  -4.6987  -2.4742
    -1.9552  -1.7290  -1.3074  -0.3808   0.4753   3.0971   3.1344   3.3619
     3.8053   6.3386   6.7877   7.8147   8.4054  10.3414  10.6171  10.6921
    11.9744  12.1081  12.3013  13.4087  13.4129  15.1794  15.7839  16.1322
    16.3559  16.8528  17.7071  18.8957  20.4457  21.4924  21.4973  21.6905

          k = 0.0816 0.1413 0.0000 ( 15209 PWs)   bands (ev):

   -60.2528 -34.3834 -34.2578 -34.2065 -13.1631 -12.0321  -4.6533  -2.5513
    -2.0366  -1.6863  -1.3902  -0.3551   0.4392   3.0351   3.1150   3.3200
     3.8761   6.4023   6.8465   7.9474   8.5000  10.3870  10.6204  10.7290
    11.9923  12.0348  12.3644  13.3899  13.4021  15.1284  15.6008  16.1607
    16.3299  16.8942  17.8340  19.1722  20.4816  21.2065  21.2506  21.4939

          k = 0.0883 0.1530 0.0000 ( 15187 PWs)   bands (ev):

   -60.2518 -34.3812 -34.2684 -34.2095 -13.1157 -12.0126  -4.6064  -2.6296
    -2.1162  -1.6418  -1.4791  -0.3341   0.3982   2.9762   3.1003   3.2780
     3.9500   6.4701   6.9100   8.0739   8.6115  10.4306  10.5505  10.8240
    11.9037  12.0830  12.4217  13.3852  13.3903  15.0898  15.4073  16.1988
    16.3073  16.9390  17.9684  19.4481  20.4383  20.9286  20.9544  21.3103

          k = 0.0951 0.1648 0.0000 ( 15171 PWs)   bands (ev):

   -60.2506 -34.3789 -34.2795 -34.2127 -13.0652 -11.9917  -4.5584  -2.7077
    -2.1938  -1.5959  -1.5736  -0.3180   0.3524   2.9208   3.0909   3.2372
     4.0261   6.5419   6.9780   8.1917   8.7407  10.4709  10.4825  10.8911
    11.8530  12.1169  12.4688  13.3617  13.4161  15.0676  15.2066  16.2434
    16.2880  16.9874  18.1099  19.7149  20.3041  20.6489  20.6689  21.0425

          k = 0.1019 0.1766 0.0000 ( 15179 PWs)   bands (ev):

   -60.2494 -34.3765 -34.2910 -34.2161 -13.0119 -11.9697  -4.5103  -2.7846
    -2.2694  -1.6728  -1.5494  -0.3065   0.3023   2.8689   3.0869   3.1989
     4.1037   6.6177   7.0503   8.3009   8.8860  10.4161  10.5050  10.9235
    11.8481  12.1344  12.5047  13.3323  13.4688  15.0026  15.0641  16.2719
    16.2917  17.0400  18.2583  19.9391  20.1038  20.3451  20.4567  20.7722

          k = 0.1087 0.1883 0.0000 ( 15175 PWs)   bands (ev):

   -60.2481 -34.3740 -34.3028 -34.2198 -12.9558 -11.9466  -4.4630  -2.8589
    -2.3431  -1.7758  -1.5033  -0.2997   0.2485   2.8204   3.0884   3.1642
     4.1820   6.6976   7.1269   8.4030   9.0435  10.3514  10.5276  10.9274
    11.8866  12.1348  12.5320  13.2984  13.5429  14.8018  15.0796  16.2592
    16.3409  17.0974  18.4130  19.8667  19.9721  20.0458  20.3843  20.5625

          k = 0.1155 0.2001 0.0000 ( 15175 PWs)   bands (ev):

   -60.2468 -34.3714 -34.3149 -34.2237 -12.8972 -11.9224  -4.4178  -2.9292
    -2.4153  -1.8813  -1.4587  -0.2973   0.1920   2.7750   3.0953   3.1344
     4.2605   6.7815   7.2076   8.5006   9.2081  10.2888  10.5314  10.9212
    11.9565  12.1196  12.5544  13.2620  13.6237  14.6166  15.1126  16.2503
    16.3887  17.1607  18.5736  19.6106  19.7522  19.8011  20.1806  20.7001

          k = 0.1223 0.2119 0.0000 ( 15171 PWs)   bands (ev):

   -60.2455 -34.3688 -34.3271 -34.2279 -12.8363 -11.8973  -4.3759  -2.9941
    -2.4864  -1.9878  -1.4168  -0.2993   0.1340   2.7325   3.1075   3.1104
     4.3382   6.8694   7.2923   8.5959   9.3738  10.2299  10.5109  10.9225
    12.0442  12.0931  12.5731  13.2255  13.6825  14.4727  15.1599  16.2457
    16.4332  17.2307  18.7391  19.3452  19.4652  19.5947  19.9179  20.9450

          k = 0.1291 0.2236 0.0000 ( 15171 PWs)   bands (ev):

   -60.2442 -34.3661 -34.3393 -34.2323 -12.7733 -11.8713  -4.3388  -3.0517
    -2.5575  -2.0933  -1.3793  -0.3057   0.0762   2.6931   3.0928   3.1247
     4.4146   6.9612   7.3806   8.6904   9.5311  10.1799  10.4686  10.9385
    12.0609  12.1400  12.5866  13.1912  13.6740  14.4140  15.2165  16.2462
    16.4731  17.3079  18.9058  19.0765  19.1876  19.3922  19.6569  20.7647

          k = 0.1359 0.2354 0.0000 ( 15161 PWs)   bands (ev):

   -60.2428 -34.3633 -34.3516 -34.2370 -12.7084 -11.8445  -4.3082  -3.1006
    -2.6301  -2.1955  -1.3479  -0.3163   0.0202   2.6570   3.0816   3.1466
     4.4890   7.0567   7.4725   8.7852   9.6618  10.1536  10.4130  10.9663
    12.0287  12.2384  12.5906  13.1610  13.5799  14.4596  15.2759  16.2525
    16.5089  17.3921  18.8073  18.8942  19.0987  19.2002  19.4058  20.5279

          k = 0.1427 0.2472 0.0000 ( 15161 PWs)   bands (ev):

   -60.2414 -34.3637 -34.3605 -34.2418 -12.6419 -11.8171  -4.2854  -3.1391
    -2.7063  -2.2914  -1.3246  -0.3311  -0.0318   2.6252   3.0765   3.1729
     4.5606   7.1559   7.5678   8.8810   9.7319  10.1814  10.3524  11.0011
    12.0014  12.3368  12.5781  13.1361  13.4393  14.5745  15.3301  16.2656
    16.5428  17.4814  18.5420  18.6308  19.0138  19.1768  19.2690  20.2827

          k = 0.1495 0.2590 0.0000 ( 15159 PWs)   bands (ev):

   -60.2400 -34.3757 -34.3577 -34.2469 -12.5741 -11.7890  -4.2718  -3.1662
    -2.7882  -2.3780  -1.3115  -0.3499  -0.0778   2.5985   3.0769   3.2031
     4.6290   7.2586   7.6662   8.9780   9.7256  10.2762  10.2929  11.0395
    11.9829  12.4343  12.5387  13.1173  13.2968  14.7227  15.3699  16.2862
    16.5785  17.5715  18.2819  18.3675  18.8145  18.9950  19.4439  20.0353

          k = 0.1563 0.2707 0.0000 ( 15143 PWs)   bands (ev):

   -60.2386 -34.3874 -34.3550 -34.2523 -12.5052 -11.7605  -4.2677  -3.1814
    -2.8774  -2.4530  -1.3103  -0.3727  -0.1160   2.5780   3.0819   3.2367
     4.6937   7.3645   7.7675   9.0764   9.6710  10.2381  10.4067  11.0794
    11.9764  12.4618  12.5311  13.1046  13.1804  14.8849  15.3863  16.3144
    16.6205  17.6543  18.0293  18.1101  18.5974  18.8742  19.6001  19.7998

          k = 0.1631 0.2825 0.0000 ( 15155 PWs)   bands (ev):

   -60.2372 -34.3988 -34.3522 -34.2578 -12.4355 -11.7316  -4.2729  -3.1852
    -2.9743  -2.5154  -1.3225  -0.3993  -0.1448   2.5648   3.0906   3.2732
     4.7542   7.4733   7.8714   9.1759   9.5934  10.1903  10.5444  11.1203
    11.9843  12.3459  12.6280  13.0975  13.1014  15.0511  15.3730  16.3494
    16.6712  17.7168  17.7862  17.8608  18.3785  18.8110  19.5158  19.7327

          k = 0.1699 0.2943 0.0000 ( 15163 PWs)   bands (ev):

   -60.2359 -34.4098 -34.3494 -34.2636 -12.3654 -11.7025  -4.2861  -3.1789
    -3.0775  -2.5656  -1.3485  -0.4297  -0.1639   2.5599   3.1018   3.3121
     4.8102   7.5846   7.9778   9.2753   9.5049  10.1513  10.6740  11.1621
    12.0068  12.2056  12.7254  13.0541  13.0956  15.2140  15.3278  16.3875
    16.7284  17.5537  17.6248  17.7443  18.1693  18.8083  19.2822  19.5837

          k = 0.1767 0.3060 0.0000 ( 15147 PWs)   bands (ev):

   -60.2345 -34.4203 -34.3467 -34.2695 -12.2950 -11.6733  -4.3057  -3.1853
    -3.1644  -2.6051  -1.3879  -0.4636  -0.1733   2.5638   3.1148   3.3528
     4.8616   7.6978   8.0864   9.3597   9.4250  10.1221  10.7848  11.2054
    12.0141  12.0921  12.8230  13.0269  13.0990  15.2525  15.3676  16.4192
    16.7843  17.3280  17.4177  17.7276  17.9794  18.8670  19.0486  19.3797

          k = 0.1835 0.3178 0.0000 ( 15139 PWs)   bands (ev):

   -60.2332 -34.4303 -34.3441 -34.2757 -12.2248 -11.6440  -4.3296  -3.2955
    -3.1440  -2.6351  -1.4394  -0.5010  -0.1739   2.5769   3.1285   3.3946
     4.9083   7.8121   8.1970   9.2970   9.4880  10.1035  10.8664  11.2507
    11.9012  12.1310  12.9172  13.0107  13.1107  15.1518  15.5055  16.4262
    16.8248  17.1040  17.2643  17.6670  17.8233  18.8224  18.9767  19.1776

          k = 0.1903 0.3296 0.0000 ( 15131 PWs)   bands (ev):

   -60.2319 -34.4397 -34.3415 -34.2821 -12.1551 -11.6149  -4.3557  -3.4066
    -3.1198  -2.6569  -1.5015  -0.5417  -0.1669   2.5990   3.1425   3.4370
     4.9504   7.9260   8.3091   9.1975   9.5849  10.0960  10.9074  11.2991
    11.7968  12.2121  12.9950  13.0006  13.1429  15.0310  15.6195  16.3863
    16.8299  16.8862  17.1840  17.5722  17.7168  18.6067  18.9871  19.1202

          k = 0.1971 0.3414 0.0000 ( 15123 PWs)   bands (ev):

   -60.2306 -34.4485 -34.3389 -34.2886 -12.0862 -11.5860  -4.3822  -3.5172
    -3.0939  -2.6714  -1.5722  -0.5855  -0.1535   2.6293   3.1562   3.4792
     4.9882   8.0373   8.4226   9.0983   9.6791  10.1000  10.9015  11.3513
    11.7358  12.3125  12.9943  13.0360  13.2150  14.8955  15.6952  16.2990
    16.6853  16.7819  17.1704  17.4647  17.6607  18.4045  18.8158  19.2795

          k = 0.2039 0.3531 0.0000 ( 15131 PWs)   bands (ev):

   -60.2294 -34.4565 -34.3365 -34.2954 -12.0185 -11.5576  -4.4076  -3.6262
    -3.0679  -2.6793  -1.6500  -0.6321  -0.1347   2.6663   3.1700   3.5205
     5.0222   8.1424   8.5372   9.0049   9.7648  10.1159  10.8574  11.4078
    11.7205  12.4273  12.9917  13.0496  13.3162  14.7496  15.7079  16.1860
    16.5254  16.6819  17.1870  17.3496  17.6511  18.2183  18.6752  19.4353

          k = 0.2107 0.3649 0.0000 ( 15129 PWs)   bands (ev):

   -60.2282 -34.4638 -34.3342 -34.3023 -11.9524 -11.5296  -4.4304  -3.7327
    -3.0432  -2.6810  -1.7333  -0.6813  -0.1109   2.7074   3.1849   3.5601
     5.0529   8.2342   8.6524   8.9244   9.8349  10.1438  10.7999  11.4691
    11.7386  12.5510  12.9942  13.0519  13.4290  14.5974  15.6400  16.0464
    16.4470  16.5478  17.1927  17.2243  17.6732  18.0486  18.5818  19.5651

          k = 0.2175 0.3767 0.0000 ( 15148 PWs)   bands (ev):

   -60.2271 -34.4704 -34.3319 -34.3093 -11.8881 -11.5023  -4.4495  -3.8361
    -3.0210  -2.6771  -1.8210  -0.7329  -0.0827   2.7487   3.2031   3.5973
     5.0810   8.3005   8.7680   8.8681   9.8806  10.1837  10.7572  11.5351
    11.7764  12.6760  13.0060  13.0482  13.5463  14.4422  15.5107  15.8735
    16.3974  16.4490  17.0904  17.1616  17.7076  17.8918  18.5506  19.6452

          k = 0.2243 0.3884 0.0000 ( 15148 PWs)   bands (ev):

   -60.2260 -34.4761 -34.3298 -34.3165 -11.8261 -11.4757  -4.4640  -3.9357
    -3.0021  -2.6679  -1.9119  -0.7865  -0.0501   2.7848   3.2282   3.6313
     5.1074   8.3257   8.8492   8.8835   9.8958  10.2358  10.7501  11.6056
    11.8249  12.7884  13.0385  13.0401  13.6642  14.2874  15.3518  15.6845
    16.2421  16.4838  16.9503  17.0932  17.7401  17.7445  18.5810  19.6647

          k = 0.2311 0.4002 0.0000 ( 15148 PWs)   bands (ev):

   -60.2250 -34.4809 -34.3278 -34.3239 -11.7667 -11.4501  -4.4730  -4.0310
    -2.9871  -2.6538  -2.0052  -0.8419  -0.0133   2.8097   3.2644   3.6614
     5.1327   8.3053   8.8680   8.9986   9.8857  10.2997  10.7854  11.6796
    11.8793  12.8657  13.0282  13.1117  13.7787  14.1370  15.1826  15.4916
    16.0886  16.5111  16.8065  17.0075  17.6093  17.7619  18.6548  19.6340

          k = 0.2379 0.4120 0.0000 ( 15144 PWs)   bands (ev):

   -60.2241 -34.4849 -34.3313 -34.3259 -11.7102 -11.4256  -4.4761  -4.1217
    -2.9763  -2.6350  -2.1002  -0.8987   0.0275   2.8191   3.3146   3.6872
     5.1577   8.2532   8.9037   9.1128   9.8680  10.3754  10.8564  11.7560
    11.9372  12.9050  13.0124  13.2263  13.8757  14.0047  15.0125  15.3000
    15.9413  16.4983  16.6609  16.9287  17.4988  17.7677  18.7488  19.5716

          k = 0.2447 0.4238 0.0000 ( 15138 PWs)   bands (ev):

   -60.2232 -34.4881 -34.3389 -34.3241 -11.6569 -11.4022  -4.4726  -4.2072
    -2.9702  -2.6121  -2.1961  -0.9565   0.0723   2.8117   3.3785   3.7080
     5.1830   8.1862   8.9313   9.2257   9.8644  10.4623  10.9522  11.8327
    11.9974  12.9254  12.9928  13.3610  13.8304  14.0146  14.8468  15.1119
    15.8040  16.4309  16.5156  16.8579  17.4336  17.7553  18.8435  19.4921

          k = 0.2514 0.4355 0.0000 ( 15134 PWs)   bands (ev):

   -60.2224 -34.4903 -34.3465 -34.3225 -11.6071 -11.3801  -4.4621  -4.2874
    -2.9688  -2.5852  -2.2920  -1.0150   0.1206   2.7892   3.4533   3.7239
     5.2092   8.1145   8.9343   9.3369   9.8908  10.5599  11.0641  11.9070
    12.0594  12.9377  12.9686  13.5022  13.7130  14.0954  14.6891  14.9287
    15.6802  16.3240  16.3726  16.7708  17.4278  17.7250  18.9248  19.4035

          k = 0.2582 0.4473 0.0000 ( 15136 PWs)   bands (ev):

   -60.2216 -34.4917 -34.3542 -34.3210 -11.5610 -11.3595  -4.4444  -4.3617
    -2.9726  -2.5551  -2.3870  -1.0737   0.1719   2.7544   3.5352   3.7346
     5.2364   8.0439   8.9085   9.4459   9.9519  10.6674  11.1861  11.9757
    12.1230  12.9386  12.9451  13.6096  13.6436  14.1605  14.5425  14.7512
    15.5735  16.1997  16.2342  16.6580  17.4718  17.6800  18.9831  19.3097

          k = 0.2650 0.4591 0.0000 ( 15122 PWs)   bands (ev):

   -60.2210 -34.4922 -34.3620 -34.3196 -11.5188 -11.3404  -4.4301  -4.4193
    -2.9820  -2.5220  -2.4798  -1.1322   0.2255   2.7101   3.6206   3.7404
     5.2645   7.9777   8.8592   9.5522  10.0426  10.7839  11.3144  12.0347
    12.1877  12.9006  12.9477  13.5315  13.7800  14.1985  14.4114  14.5803
    15.4862  16.0712  16.1033  16.5283  17.5445  17.6253  19.0145  19.2121

          k = 0.2718 0.4708 0.0000 ( 15112 PWs)   bands (ev):

   -60.2204 -34.4918 -34.3697 -34.3184 -11.4808 -11.3229  -4.4923  -4.3867
    -2.9982  -2.5685  -2.4867  -1.1897   0.2804   2.6590   3.7064   3.7418
     5.2935   7.9183   8.7945   9.6551  10.1541  10.9079  11.4461  12.0803
    12.2527  12.8527  12.9457  13.4864  13.9009  14.2036  14.3054  14.4171
    15.4168  15.9450  15.9839  16.3915  17.5680  17.6295  19.0208  19.1116

          k = 0.2786 0.4826 0.0000 ( 15124 PWs)   bands (ev):

   -60.2198 -34.4906 -34.3774 -34.3173 -11.4469 -11.3072  -4.5481  -4.3468
    -3.0227  -2.6505  -2.4498  -1.2459   0.3356   2.6035   3.7393   3.7900
     5.3227   7.8675   8.7213   9.7538  10.2782  11.0378  11.5789  12.1102
    12.3159  12.7952  12.9405  13.4776  13.9704  14.1750  14.2534  14.2689
    15.3576  15.8243  15.8814  16.2531  17.5159  17.7161  19.0089  19.0091

          k = 0.2854 0.4944 0.0000 ( 15108 PWs)   bands (ev):

   -60.2194 -34.4887 -34.3851 -34.3164 -11.4173 -11.2933  -4.5974  -4.2999
    -3.0579  -2.7224  -2.4122  -1.2998   0.3897   2.5462   3.7338   3.8689
     5.3516   7.8269   8.6439   9.8471  10.4083  11.1714  11.7106  12.1247
    12.3734  12.7317  12.9363  13.5022  13.9430  14.1178  14.1188  14.3175
    15.2958  15.7107  15.8006  16.1166  17.4772  17.7967  18.9053  18.9891

          k = 0.2922 0.5061 0.0000 ( 15118 PWs)   bands (ev):

   -60.2190 -34.4860 -34.3926 -34.3156 -11.3921 -11.2812  -4.6400  -4.2466
    -3.1056  -2.7813  -2.3749  -1.3505   0.4414   2.4894   3.7260   3.9411
     5.3794   7.7979   8.5655   9.9334  10.5387  11.3056  11.8387  12.1274
    12.4199  12.6668  12.9399  13.5514  13.8636  13.9901  14.0423  14.4290
    15.2212  15.6043  15.7421  15.9842  17.4590  17.8655  18.8028  18.9696

          k = 0.2990 0.5179 0.0000 ( 15110 PWs)   bands (ev):

   -60.2186 -34.4827 -34.3999 -34.3149 -11.3710 -11.2709  -4.6760  -4.1879
    -3.1647  -2.8264  -2.3391  -1.3971   0.4889   2.4357   3.7170   4.0048
     5.4053   7.7814   8.4878  10.0111  10.6641  11.4358  11.9594  12.1249
    12.4512  12.6047  12.9585  13.6080  13.7711  13.8772  13.9659  14.5543
    15.1323  15.5048  15.6994  15.8571  17.4656  17.9182  18.7044  18.9566

          k = 0.3058 0.5297 0.0000 ( 15122 PWs)   bands (ev):

   -60.2184 -34.4790 -34.4069 -34.3144 -11.3542 -11.2626  -4.7053  -4.1258
    -3.2314  -2.8597  -2.3063  -1.4381   0.5306   2.3875   3.7075   4.0583
     5.4283   7.7778   8.4126  10.0780  10.7788  11.5551  12.0663  12.1254
    12.4707  12.5485  12.9932  13.6347  13.6806  13.7776  13.9258  14.6823
    15.0346  15.4119  15.6639  15.7361  17.4972  17.9532  18.6144  18.9055

          k = 0.3126 0.5415 0.0000 ( 15122 PWs)   bands (ev):

   -60.2182 -34.4750 -34.4134 -34.3140 -11.3414 -11.2562  -4.7279  -4.0631
    -3.2993  -2.8840  -2.2782  -1.4723   0.5648   2.3473   3.6986   4.1007
     5.4476   7.7863   8.3420  10.1320  10.8767  11.6547  12.1372  12.1490
    12.4911  12.5012  13.0374  13.5941  13.6045  13.6867  13.9585  14.8095
    14.9364  15.3267  15.6215  15.6308  17.5479  17.9720  18.5396  18.8014

          k = 0.3194 0.5532 0.0000 ( 15130 PWs)   bands (ev):

   -60.2180 -34.4712 -34.4189 -34.3137 -11.3325 -11.2517  -4.7440  -4.0054
    -3.3610  -2.9014  -2.2565  -1.4980   0.5902   2.3169   3.6911   4.1312
     5.4623   7.8042   8.2794  10.1713  10.9518  11.7257  12.1627  12.1984
    12.4659  12.5234  13.0820  13.5193  13.5501  13.6049  14.0297  14.8477
    14.9326  15.2534  15.5132  15.6006  17.6054  17.9787  18.4903  18.7046

          k = 0.3262 0.5650 0.0000 ( 15138 PWs)   bands (ev):

   -60.2179 -34.4682 -34.4230 -34.3136 -11.3273 -11.2490  -4.7536  -3.9615
    -3.4065  -2.9126  -2.2427  -1.5140   0.6059   2.2980   3.6860   4.1495
     5.4718   7.8250   8.2317  10.1949  10.9990  11.7658  12.1930  12.2192
    12.4445  12.5576  13.1224  13.4537  13.5060  13.5515  14.0941  14.7825
    15.0391  15.2059  15.4138  15.5770  17.6521  17.9790  18.4810  18.6156

          k = 0.3330 0.5768 0.0000 ( 15144 PWs)   bands (ev):

   -60.2179 -34.4670 -34.4246 -34.3135 -11.3255 -11.2480  -4.7569  -3.9435
    -3.4247  -2.9170  -2.2377  -1.5197   0.6113   2.2912   3.6839   4.1559
     5.4753   7.8361   8.2112  10.2031  11.0158  11.7788  12.2094  12.2246
    12.4364  12.5726  13.1461  13.4254  13.4752  13.5392  14.1215  14.7572
    15.0805  15.2119  15.3503  15.5667  17.6708  17.9780  18.5203  18.5400

          k = 0.3388 0.5668 0.0000 ( 15140 PWs)   bands (ev):

   -60.2179 -34.4679 -34.4234 -34.3135 -11.3267 -11.2486  -4.7547  -3.9562
    -3.4126  -2.9132  -2.2410  -1.5160   0.6077   2.2957   3.6855   4.1517
     5.4728   7.8261   8.2275  10.1979  11.0049  11.7708  12.1922  12.2210
    12.4449  12.5634  13.1211  13.4473  13.4958  13.5539  14.1030  14.7722
    15.0742  15.1713  15.4098  15.5760  17.6587  17.9793  18.4664  18.6174

          k = 0.3445 0.5569 0.0000 ( 15144 PWs)   bands (ev):

   -60.2180 -34.4704 -34.4202 -34.3136 -11.3299 -11.2504  -4.7483  -3.9899
    -3.3829  -2.9005  -2.2501  -1.5058   0.5979   2.3084   3.6903   4.1400
     5.4654   7.7981   8.2732  10.1839  10.9752  11.7491  12.1372  12.2087
    12.4746  12.5421  13.0551  13.5016  13.5097  13.6381  14.0564  14.8052
    15.0721  15.0983  15.5228  15.6065  17.6282  17.9832  18.4119  18.7350

          k = 0.3503 0.5470 0.0000 ( 15142 PWs)   bands (ev):

   -60.2181 -34.4741 -34.4155 -34.3138 -11.3351 -11.2532  -4.7380  -4.0380
    -3.3454  -2.8754  -2.2640  -1.4903   0.5826   2.3284   3.6987   4.1214
     5.4529   7.7573   8.3427  10.1627  10.9299  11.7147  12.0488  12.1838
    12.5165  12.5258  12.9649  13.4869  13.6061  13.7743  13.9937  14.8406
    15.0193  15.0828  15.6553  15.6624  17.5862  17.9892  18.3638  18.8778

          k = 0.3560 0.5370 0.0000 ( 15128 PWs)   bands (ev):

   -60.2182 -34.4785 -34.4097 -34.3140 -11.3419 -11.2570  -4.7241  -4.0948
    -3.3096  -2.8345  -2.2818  -1.4708   0.5630   2.3548   3.7111   4.0967
     5.4354   7.7090   8.4296  10.1358  10.8720  11.6666  11.9402  12.1441
    12.4900  12.5937  12.8614  13.4653  13.7278  13.9241  13.9369  14.8689
    14.9426  15.1027  15.7447  15.8020  17.5384  17.9959  18.3225  18.9560

          k = 0.3618 0.5271 0.0000 ( 15122 PWs)   bands (ev):

   -60.2183 -34.4832 -34.4032 -34.3143 -11.3503 -11.2617  -4.7066  -4.1564
    -3.2817  -2.7757  -2.3023  -1.4483   0.5402   2.3863   3.7277   4.0667
     5.4128   7.6568   8.5297  10.1048  10.8045  11.5989  11.8278  12.0904
    12.4601  12.6732  12.7516  13.4421  13.8517  13.8699  14.1163  14.8688
    14.8871  15.1309  15.8503  15.9620  17.4892  18.0009  18.2883  18.9528

          k = 0.3676 0.5172 0.0000 ( 15122 PWs)   bands (ev):

   -60.2185 -34.4882 -34.3963 -34.3146 -11.3601 -11.2673  -4.6860  -4.2204
    -3.2636  -2.6996  -2.3245  -1.4242   0.5152   2.4218   3.7488   4.0321
     5.3852   7.6028   8.6401  10.0709  10.7295  11.5002  11.7306  12.0248
    12.4193  12.6444  12.7596  13.4210  13.7880  14.0204  14.3063  14.8003
    14.8966  15.1652  15.9743  16.1346  17.4417  18.0019  18.2614  18.9513

          k = 0.3733 0.5072 0.0000 ( 15128 PWs)   bands (ev):

   -60.2187 -34.4932 -34.3889 -34.3150 -11.3710 -11.2735  -4.6625  -4.2853
    -3.2544  -2.6089  -2.3476  -1.3993   0.4890   2.4603   3.7746   3.9936
     5.3530   7.5481   8.7588  10.0353  10.6488  11.3684  11.6559  11.9495
    12.3557  12.5527  12.8475  13.4039  13.7312  14.1817  14.4961  14.7446
    14.9003  15.2052  16.1105  16.3191  17.3989  17.9968  18.2419  18.9502

          k = 0.3791 0.4973 0.0000 ( 15124 PWs)   bands (ev):

   -60.2189 -34.4982 -34.3814 -34.3154 -11.3828 -11.2804  -4.6365  -4.3499
    -3.2519  -2.5071  -2.3710  -1.3746   0.4623   2.5006   3.8052   3.9522
     5.3164   7.4934   8.8841   9.9990  10.5637  11.2150  11.5962  11.8654
    12.2652  12.4843  12.9303  13.3913  13.6893  14.3488  14.6072  14.7767
    14.9012  15.2521  16.2530  16.5143  17.3639  17.9842  18.2301  18.9470

          k = 0.3848 0.4874 0.0000 ( 15122 PWs)   bands (ev):

   -60.2191 -34.5031 -34.3738 -34.3158 -11.3955 -11.2877  -4.6082  -4.4137
    -3.2544  -2.3968  -2.3939  -1.3506   0.4359   2.5419   3.8408   3.9084
     5.2757   7.4393   9.0145   9.9625  10.4753  11.0500  11.5440  11.7722
    12.1610  12.4307  12.9990  13.3823  13.6701  14.5185  14.5749  14.9027
    14.9551  15.3109  16.3949  16.7191  17.3414  17.9634  18.2261  18.9385

          k = 0.3906 0.4774 0.0000 ( 15122 PWs)   bands (ev):

   -60.2193 -34.5079 -34.3661 -34.3163 -11.4088 -11.2955  -4.5781  -4.4762
    -3.2603  -2.4159  -2.2804  -1.3280   0.4102   2.5833   3.8629   3.8812
     5.2315   7.3861   9.1486   9.9265  10.3844  10.8792  11.4959  11.6699
    12.0577  12.3824  13.0440  13.3756  13.6820  14.5218  14.6842  14.9116
    15.1403  15.3979  16.5278  16.9323  17.3378  17.9348  18.2302  18.9213

          k = 0.3963 0.4675 0.0000 ( 15142 PWs)   bands (ev):

   -60.2195 -34.5126 -34.3584 -34.3168 -11.4225 -11.3036  -4.5465  -4.5370
    -3.2686  -2.4367  -2.1595  -1.3071   0.3855   2.6241   3.8165   3.9265
     5.1844   7.3341   9.2843   9.8912  10.2922  10.7054  11.4506  11.5599
    11.9626  12.3353  13.0605  13.3696  13.7283  14.4676  14.8150  14.9592
    15.2793  15.5458  16.6409  17.1524  17.3625  17.8991  18.2430  18.8938

          k = 0.4021 0.4576 0.0000 ( 15142 PWs)   bands (ev):

   -60.2198 -34.5171 -34.3507 -34.3172 -11.4364 -11.3119  -4.5957  -4.5138
    -3.2786  -2.4560  -2.0355  -1.2883   0.3622   2.6635   3.7697   3.9764
     5.1348   7.2833   9.4189   9.8568  10.2006  10.5309  11.4075  11.4454
    11.8776  12.2887  13.0526  13.3631  13.8032  14.4144  14.8619  15.0947
    15.3718  15.7518  16.7244  17.3775  17.4237  17.8579  18.2651  18.8562

          k = 0.4079 0.4476 0.0000 ( 15112 PWs)   bands (ev):

   -60.2200 -34.5215 -34.3433 -34.3177 -11.4505 -11.3204  -4.6521  -4.4805
    -3.2897  -2.4734  -1.9094  -1.2717   0.3401   2.7009   3.7232   4.0308
     5.0834   7.2339   9.5466   9.8232  10.1145  10.3574  11.3308  11.3666
    11.8021  12.2425  13.0288  13.3552  13.8959  14.3626  14.8802  15.2633
    15.4488  15.9839  16.7766  17.5209  17.6025  17.8156  18.2982  18.8106

          k = 0.4136 0.4377 0.0000 ( 15114 PWs)   bands (ev):

   -60.2203 -34.5256 -34.3360 -34.3182 -11.4645 -11.3288  -4.7060  -4.4469
    -3.3015  -2.4888  -1.7821  -1.2576   0.3193   2.7359   3.6777   4.0892
     5.0310   7.1862   9.6520   9.7899  10.0483  10.1866  11.2206  11.3278
    11.7349  12.1973  12.9964  13.3455  13.9963  14.3118  14.8994  15.4361
    15.5240  16.2273  16.8063  17.6427  17.7347  17.8635  18.3448  18.7613

          k = 0.4194 0.4278 0.0000 ( 15114 PWs)   bands (ev):

   -60.2205 -34.5296 -34.3289 -34.3187 -11.4783 -11.3372  -4.7572  -4.4134
    -3.3137  -2.5020  -1.6546  -1.2459   0.2997   2.7677   3.6338   4.1512
     4.9782   7.1401   9.6964   9.7547  10.0219  10.0393  11.1187  11.2910
    11.6747  12.1533  12.9603  13.3337  14.0957  14.2619  14.9272  15.6013
    15.6059  16.4762  16.8257  17.6941  17.7732  18.0765  18.4092  18.7167

          k = 0.4251 0.4178 0.0000 ( 15114 PWs)   bands (ev):

   -60.2208 -34.5333 -34.3221 -34.3192 -11.4918 -11.3454  -4.8055  -4.3805
    -3.3260  -2.5131  -1.5276  -1.2367   0.2809   2.7961   3.5920   4.2162
     4.9258   7.0958   9.6584   9.7091   9.8729  10.1069  11.0292  11.2565
    11.6205  12.1111  12.9231  13.3199  14.1870  14.2125  14.9684  15.6817
    15.7679  16.7266  16.8457  17.6435  17.8974  18.2715  18.4963  18.7015

          k = 0.4309 0.4079 0.0000 ( 15102 PWs)   bands (ev):

   -60.2210 -34.5368 -34.3197 -34.3156 -11.5048 -11.3534  -4.8509  -4.3485
    -3.3383  -2.5220  -1.4019  -1.2299   0.2627   2.8206   3.5531   4.2834
     4.8746   7.0534   9.5784   9.6221   9.7715  10.2070  10.9572  11.2241
    11.5720  12.0709  12.8867  13.3043  14.1633  14.2647  15.0267  15.7649
    15.9165  16.8759  16.9710  17.6003  18.0047  18.3733  18.6094  18.7822

          k = 0.4367 0.3980 0.0000 ( 15098 PWs)   bands (ev):

   -60.2212 -34.5400 -34.3201 -34.3095 -11.5172 -11.3610  -4.8931  -4.3179
    -3.3503  -2.5287  -1.2783  -1.2252   0.2446   2.8408   3.5176   4.3517
     4.8255   7.0130   9.4854   9.4887   9.7240  10.3036  10.9104  11.1941
    11.5288  12.0332  12.8519  13.2871  14.1143  14.3258  15.1032  15.8502
    16.0450  16.9251  17.1848  17.5907  18.0918  18.3662  18.7453  18.9745

          k = 0.4424 0.3880 0.0000 ( 15112 PWs)   bands (ev):

   -60.2214 -34.5430 -34.3205 -34.3038 -11.5289 -11.3683  -4.9320  -4.2889
    -3.3618  -2.5333  -1.2226  -1.1576   0.2262   2.8567   3.4859   4.4197
     4.7798   6.9747   9.3451   9.3897   9.6950  10.3753  10.9000  11.1664
    11.4911  11.9979  12.8194  13.2688  14.0655  14.3703  15.1962  15.9361
    16.1470  17.0008  17.2958  17.6880  18.1612  18.3172  18.8940  19.2119

          k = 0.4482 0.3781 0.0000 ( 15106 PWs)   bands (ev):

   -60.2216 -34.5457 -34.3209 -34.2985 -11.5399 -11.3750  -4.9675  -4.2619
    -3.3727  -2.5361  -1.2217  -1.0404   0.2070   2.8680   3.4586   4.4845
     4.7398   6.9388   9.2046   9.2959   9.6725  10.4093  10.9336  11.1411
    11.4595  11.9655  12.7895  13.2495  14.0171  14.4010  15.3016  16.0208
    16.2200  17.1059  17.2983  17.8981  18.2175  18.2574  19.0408  19.4648

          k = 0.4539 0.3682 0.0000 ( 15110 PWs)   bands (ev):

   -60.2218 -34.5482 -34.3213 -34.2937 -11.5499 -11.3812  -4.9996  -4.2371
    -3.3828  -2.5372  -1.2222  -0.9277   0.1865   2.8751   3.4357   4.5401
     4.7110   6.9055   9.0713   9.2069   9.6536  10.4104  11.0021  11.1184
    11.4352  11.9358  12.7625  13.2295  13.9694  14.4211  15.4142  16.1020
    16.2672  17.2370  17.2692  18.1157  18.2256  18.2644  19.1676  19.7238

          k = 0.4597 0.3582 0.0000 ( 15110 PWs)   bands (ev):

   -60.2220 -34.5503 -34.3216 -34.2894 -11.5589 -11.3869  -5.0281  -4.2148
    -3.3921  -2.5370  -1.2239  -0.8202   0.1643   2.8784   3.4171   4.5711
     4.7079   6.8750   8.9476   9.1246   9.6375  10.3933  11.0845  11.0981
    11.4216  11.9091  12.7386  13.2090  13.9231  14.4339  15.5290  16.1770
    16.2952  17.2389  17.3869  18.1009  18.3040  18.4365  19.2543  19.9479

          k = 0.4654 0.3483 0.0000 ( 15106 PWs)   bands (ev):

   -60.2221 -34.5522 -34.3219 -34.2856 -11.5669 -11.3918  -5.0529  -4.1952
    -3.4003  -2.5358  -1.2263  -0.7189   0.1401   2.8785   3.4027   4.5681
     4.7389   6.8476   8.8352   9.0506   9.6238  10.3698  11.0805  11.1597
    11.4255  11.8852  12.7177  13.1885  13.8790  14.4418  15.6414  16.2427
    16.3102  17.2176  17.5484  18.0339  18.3375  18.7033  19.2875  19.9459

          k = 0.4712 0.3383 0.0000 ( 15108 PWs)   bands (ev):

   -60.2223 -34.5538 -34.3222 -34.2823 -11.5738 -11.3961  -5.0741  -4.1785
    -3.4075  -2.5339  -1.2292  -0.6249   0.1136   2.8765   3.3918   4.5499
     4.7841   6.8237   8.7361   8.9862   9.6123  10.3458  11.0655  11.2101
    11.4558  11.8640  12.7000  13.1682  13.8383  14.4464  15.7471  16.2964
    16.3169  17.2104  17.7149  17.9640  18.3654  18.9737  19.2707  19.9263

          k = 0.4770 0.3284 0.0000 ( 15098 PWs)   bands (ev):

   -60.2224 -34.5552 -34.3224 -34.2796 -11.5795 -11.3997  -5.0914  -4.1646
    -3.4135  -2.5318  -1.2321  -0.5396   0.0853   2.8731   3.3839   4.5299
     4.8286   6.8035   8.6518   8.9322   9.6030  10.3243  11.0532  11.2322
    11.5098  11.8454  12.6854  13.1490  13.8023  14.4489  15.8422  16.3184
    16.3368  17.2186  17.8805  17.8948  18.3880  19.2197  19.2419  19.9067

          k = 0.4827 0.3185 0.0000 ( 15108 PWs)   bands (ev):

   -60.2224 -34.5562 -34.3225 -34.2775 -11.5840 -11.4025  -5.1050  -4.1538
    -3.4182  -2.5297  -1.2347  -0.4649   0.0561   2.8694   3.3785   4.5126
     4.8668   6.7874   8.5842   8.8896   9.5958  10.3068  11.0436  11.2383
    11.5710  11.8289  12.6741  13.1317  13.7724  14.4501  15.9227  16.3166
    16.3640  17.2403  17.8291  18.0381  18.4053  19.1505  19.5012  19.8928

          k = 0.4885 0.3085 0.0000 ( 15098 PWs)   bands (ev):

   -60.2225 -34.5569 -34.3227 -34.2760 -11.5872 -11.4045  -5.1147  -4.1460
    -3.4216  -2.5279  -1.2368  -0.4042   0.0285   2.8662   3.3750   4.4997
     4.8958   6.7757   8.5346   8.8587   9.5907  10.2939  11.0367  11.2385
    11.6253  11.8144  12.6661  13.1178  13.7500  14.4507  15.9848  16.3132
    16.3804  17.2694  17.7715  18.1776  18.4171  19.0766  19.7266  19.9057

          k = 0.4942 0.2986 0.0000 ( 15092 PWs)   bands (ev):

   -60.2225 -34.5574 -34.3227 -34.2751 -11.5892 -11.4057  -5.1205  -4.1413
    -3.4236  -2.5268  -1.2382  -0.3630   0.0074   2.8640   3.3730   4.4917
     4.9138   6.7686   8.5044   8.8401   9.5876  10.2861  11.0325  11.2374
    11.6636  11.8028  12.6612  13.1086  13.7361  14.4509  16.0244  16.3099
    16.3888  17.2956  17.7297  18.2816  18.4232  19.0147  19.8143  19.8851

          k = 0.5000 0.2887 0.0000 ( 15090 PWs)   bands (ev):

   -60.2226 -34.5575 -34.3228 -34.2748 -11.5898 -11.4061  -5.1225  -4.1397
    -3.4243  -2.5264  -1.2386  -0.3480  -0.0009   2.8632   3.3724   4.4890
     4.9199   6.7662   8.4942   8.8338   9.5865  10.2835  11.0312  11.2369
    11.6779  11.7978  12.6596  13.1054  13.7313  14.4510  16.0381  16.3085
    16.3913  17.3064  17.7139  18.3224  18.4245  18.9890  19.8219  19.8639

          k = 0.4898 0.2828 0.0000 ( 15102 PWs)   bands (ev):

   -60.2226 -34.5572 -34.3228 -34.2747 -11.5923 -11.4071  -5.1200  -4.1372
    -3.4230  -2.5251  -1.2378  -0.3495  -0.0039   2.8626   3.3698   4.4873
     4.9192   6.7746   8.4924   8.8283   9.5847  10.2812  11.0293  11.2014
    11.7233  11.8028  12.6675  13.0812  13.7616  14.4474  16.0324  16.3152
    16.3804  17.3052  17.7044  18.3114  18.4227  18.9932  19.8121  19.8602

          k = 0.4796 0.2769 0.0000 ( 15104 PWs)   bands (ev):

   -60.2227 -34.5561 -34.3231 -34.2744 -11.5999 -11.4099  -5.1124  -4.1297
    -3.4192  -2.5215  -1.2351  -0.3539  -0.0128   2.8609   3.3620   4.4822
     4.9169   6.7996   8.4871   8.8121   9.5790  10.2730  11.0242  11.1251
    11.8177  11.8298  12.6903  13.0212  13.8401  14.4374  16.0153  16.3347
    16.3492  17.3004  17.6759  18.2796  18.4172  19.0048  19.7853  19.8500

          k = 0.4694 0.2710 0.0000 ( 15100 PWs)   bands (ev):

   -60.2229 -34.5542 -34.3234 -34.2740 -11.6123 -11.4145  -5.0999  -4.1172
    -3.4130  -2.5154  -1.2306  -0.3613  -0.0273   2.8581   3.3493   4.4736
     4.9132   6.8408   8.4789   8.7859   9.5688  10.2550  11.0177  11.0451
    11.8424  11.9604  12.7254  12.9480  13.9463  14.4232  15.9872  16.3008
    16.3648  17.2890  17.6288  18.2304  18.4084  19.0206  19.7480  19.8354

          k = 0.4592 0.2651 0.0000 ( 15092 PWs)   bands (ev):

   -60.2232 -34.5517 -34.3240 -34.2734 -11.6296 -11.4210  -5.0826  -4.0997
    -3.4045  -2.5068  -1.2243  -0.3716  -0.0469   2.8544   3.3322   4.4616
     4.9079   6.8973   8.4681   8.7507   9.5532  10.2221  10.9793  11.0122
    11.8766  12.0944  12.7692  12.8812  14.0655  14.4083  15.9484  16.2399
    16.4023  17.2677  17.5638  18.1686  18.3963  19.0363  19.7082  19.8203

          k = 0.4490 0.2592 0.0000 ( 15106 PWs)   bands (ev):

   -60.2235 -34.5484 -34.3247 -34.2726 -11.6515 -11.4292  -5.0607  -4.0774
    -3.3941  -2.4959  -1.2162  -0.3850  -0.0709   2.8500   3.3111   4.4459
     4.9010   6.9680   8.4556   8.7079   9.5315  10.1712  10.9346  11.0101
    11.9202  12.2134  12.8166  12.8412  14.1883  14.3973  15.8994  16.1720
    16.4427  17.2336  17.4817  18.0997  18.3814  19.0467  19.6726  19.8101

          k = 0.4388 0.2533 0.0000 ( 15102 PWs)   bands (ev):

   -60.2239 -34.5445 -34.3255 -34.2717 -11.6780 -11.4391  -5.0344  -4.0504
    -3.3819  -2.4825  -1.2062  -0.4013  -0.0986   2.8451   3.2866   4.4265
     4.8926   7.0515   8.4419   8.6587   9.5033  10.1030  10.9099  11.0134
    11.9728  12.2932  12.8535  12.8625  14.3074  14.3952  15.8409  16.1032
    16.4803  17.1861  17.3838  18.0301  18.3638  19.0464  19.6457  19.8111

          k = 0.4286 0.2474 0.0000 ( 15074 PWs)   bands (ev):

   -60.2244 -34.5398 -34.3265 -34.2706 -11.7086 -11.4507  -5.0039  -4.0187
    -3.3685  -2.4667  -1.1944  -0.4205  -0.1290   2.8399   3.2593   4.4034
     4.8825   7.1463   8.4276   8.6043   9.4688  10.0217  10.8996  11.0234
    12.0339  12.3209  12.9012  12.9327  14.4075  14.4160  15.7737  16.0404
    16.5083  17.1264  17.2713  17.9668  18.3439  19.0316  19.6292  19.8288

          k = 0.4184 0.2415 0.0000 ( 15080 PWs)   bands (ev):

   -60.2249 -34.5345 -34.3276 -34.2693 -11.7433 -11.4638  -4.9695  -3.9826
    -3.3541  -2.4486  -1.1807  -0.4428  -0.1609   2.8349   3.2298   4.3765
     4.8708   7.2506   8.4129   8.5459   9.4290   9.9328  10.8959  11.0405
    12.1031  12.3140  12.9283  13.0617  14.4385  14.5064  15.6987  15.9913
    16.5191  17.0584  17.1458  17.9173  18.3220  19.0016  19.6224  19.8659

          k = 0.4082 0.2357 0.0000 ( 15072 PWs)   bands (ev):

   -60.2256 -34.5285 -34.3288 -34.2679 -11.7817 -11.4785  -4.9316  -3.9422
    -3.3393  -2.4282  -1.1650  -0.4680  -0.1934   2.8303   3.1987   4.3457
     4.8573   7.3625   8.3978   8.4847   9.3854   9.8408  10.8919  11.0645
    12.1799  12.2979  12.9407  13.2146  14.4913  14.5720  15.6167  15.9631
    16.5060  16.9881  17.0088  17.8873  18.2982  18.9595  19.6233  19.9223

          k = 0.3980 0.2298 0.0000 ( 15070 PWs)   bands (ev):

   -60.2263 -34.5219 -34.3302 -34.2664 -11.8235 -11.4944  -4.8906  -3.8977
    -3.3246  -2.4054  -1.1474  -0.4961  -0.2251   2.8263   3.1663   4.3110
     4.8421   7.4793   8.3817   8.4225   9.3405   9.7491  10.8823  11.0942
    12.2637  12.2873  12.9379  13.3731  14.5663  14.6102  15.5288  15.9587
    16.4653  16.8622  16.9240  17.8789  18.2726  18.9114  19.6289  19.9957

          k = 0.3878 0.2239 0.0000 ( 15080 PWs)   bands (ev):

   -60.2270 -34.5147 -34.3317 -34.2647 -11.8685 -11.5117  -4.8469  -3.8493
    -3.3106  -2.3804  -1.1277  -0.5271  -0.2548   2.8234   3.1332   4.2725
     4.8250   7.5974   8.3617   8.3637   9.2970   9.6600  10.8639  11.1283
    12.2887  12.3537  12.9213  13.5219  14.6279  14.6616  15.4359  15.9732
    16.3979  16.7075  16.8777  17.8881  18.2454  18.8659  19.6361  20.0832

          k = 0.3776 0.2180 0.0000 ( 15086 PWs)   bands (ev):

   -60.2278 -34.5070 -34.3333 -34.2629 -11.9163 -11.5301  -4.8010  -3.7972
    -3.2976  -2.3531  -1.1061  -0.5609  -0.2814   2.8217   3.0998   4.2303
     4.8060   7.7105   8.3075   8.3423   9.2582   9.5751  10.8356  11.1651
    12.3040  12.4494  12.8939  13.6420  14.6449  14.7731  15.3390  15.9924
    16.3091  16.5465  16.8637  17.9047  18.2166  18.8334  19.6419  20.1820

          k = 0.3673 0.2121 0.0000 ( 15108 PWs)   bands (ev):

   -60.2287 -34.4987 -34.3350 -34.2609 -11.9666 -11.5496  -4.7533  -3.7416
    -3.2861  -2.3237  -1.0825  -0.5974  -0.3038   2.8216   3.0664   4.1845
     4.7851   7.8054   8.2715   8.3158   9.2272   9.4955  10.7977  11.2025
    12.3323  12.5498  12.8593  13.7106  14.6902  14.8947  15.2392  15.9993
    16.2075  16.3808  16.8953  17.9150  18.1860  18.8259  19.6435  20.2900

          k = 0.3571 0.2062 0.0000 ( 15112 PWs)   bands (ev):

   -60.2296 -34.4898 -34.3368 -34.2588 -12.0190 -11.5701  -4.7045  -3.6827
    -3.2764  -2.2921  -1.0570  -0.6365  -0.3208   2.8233   3.0335   4.1355
     4.7622   7.8590   8.2754   8.2824   9.2071   9.4219  10.7518  11.2386
    12.3713  12.6540  12.8214  13.7127  14.7856  15.0165  15.1374  15.9852
    16.1054  16.2119  16.9773  17.9068  18.1538  18.8533  19.6390  20.4054

          k = 0.3469 0.2003 0.0000 ( 15122 PWs)   bands (ev):

   -60.2305 -34.4806 -34.3387 -34.2567 -12.0734 -11.5913  -4.6551  -3.6208
    -3.2687  -2.2584  -1.0294  -0.6780  -0.3317   2.8270   3.0013   4.0834
     4.7372   7.8556   8.2411   8.3332   9.2003   9.3553  10.6999  11.2710
    12.4179  12.7610  12.7835  13.6551  14.9303  15.0344  15.1220  15.9535
    16.0214  16.0417  17.1035  17.8745  18.1197  18.9191  19.6265  20.5266

          k = 0.3367 0.1944 0.0000 ( 15138 PWs)   bands (ev):

   -60.2315 -34.4708 -34.3407 -34.2544 -12.1293 -11.6133  -4.6060  -3.5562
    -3.2629  -2.2227  -1.0000  -0.7218  -0.3357   2.8329   2.9702   4.0286
     4.7102   7.8109   8.1913   8.4265   9.2079   9.2966  10.6439  11.2977
    12.4686  12.7487  12.8696  13.5578  14.9310  15.1086  15.1833  15.8718
    15.9141  15.9850  17.2633  17.8206  18.0837  19.0196  19.6049  20.6524

          k = 0.3265 0.1885 0.0000 ( 15144 PWs)   bands (ev):

   -60.2326 -34.4607 -34.3428 -34.2520 -12.1865 -11.6359  -4.5580  -3.4890
    -3.2587  -2.1850  -0.9687  -0.7676  -0.3324   2.8411   2.9405   3.9715
     4.6810   7.7457   8.1334   8.5309   9.2301   9.2479  10.5854  11.3166
    12.5198  12.7193  12.9780  13.4390  14.8282  15.1741  15.3021  15.7043
    15.8803  16.0234  17.4472  17.7517  18.0457  19.1475  19.5735  20.7818

          k = 0.3163 0.1826 0.0000 ( 15138 PWs)   bands (ev):

   -60.2336 -34.4502 -34.3450 -34.2496 -12.2447 -11.6590  -4.5121  -3.4196
    -3.2554  -2.1454  -0.9357  -0.8153  -0.3215   2.8517   2.9124   3.9126
     4.6496   7.6709   8.0687   8.6298   9.2131   9.2663  10.5255  11.3261
    12.5674  12.6968  13.0844  13.3125  14.7264  15.0999  15.4837  15.5414
    15.8766  16.1318  17.6487  17.6747  18.0056  19.2960  19.5321  20.9138

          k = 0.3061 0.1767 0.0000 ( 15140 PWs)   bands (ev):

   -60.2347 -34.4394 -34.3472 -34.2470 -12.3036 -11.6824  -4.4693  -3.3481
    -3.2520  -2.1040  -0.9010  -0.8647  -0.3032   2.8647   2.8865   3.8523
     4.6160   7.5912   7.9984   8.7093   9.1994   9.3153  10.4652  11.3252
    12.6062  12.6818  13.1860  13.1900  14.6265  14.9879  15.3861  15.5953
    15.9601  16.2825  17.5965  17.8630  17.9634  19.4597  19.4812  21.0321

          k = 0.2959 0.1708 0.0000 ( 15150 PWs)   bands (ev):

   -60.2359 -34.4283 -34.3494 -34.2444 -12.3629 -11.7061  -4.4310  -3.2749
    -3.2474  -2.0609  -0.9154  -0.8650  -0.2775   2.8629   2.8801   3.7912
     4.5802   7.5090   7.9241   8.7567   9.2146   9.3757  10.4049  11.3135
    12.6281  12.6731  13.0841  13.2792  14.5289  14.8600  15.2421  15.6197
    16.1477  16.4513  17.5250  17.9191  18.0866  19.4218  19.6344  21.1346

          k = 0.2857 0.1650 0.0000 ( 15145 PWs)   bands (ev):

   -60.2370 -34.4170 -34.3517 -34.2418 -12.4224 -11.7300  -4.3984  -3.2402
    -3.2001  -2.0162  -0.9673  -0.8278  -0.2451   2.8420   2.8980   3.7298
     4.5423   7.4257   7.8469   8.7684   9.2582   9.4461  10.3451  11.2917
    12.6221  12.6684  13.0097  13.3590  14.4342  14.7292  15.1146  15.6138
    16.3823  16.6175  17.4729  17.8726  18.3160  19.3564  19.8168  21.2420

          k = 0.2755 0.1591 0.0000 ( 15155 PWs)   bands (ev):

   -60.2382 -34.4055 -34.3541 -34.2391 -12.4818 -11.7539  -4.3727  -3.2287
    -3.1239  -1.9699  -1.0201  -0.7898  -0.2066   2.8243   2.9183   3.6686
     4.5022   7.3422   7.7680   8.7532   9.3171   9.5251  10.2868  11.2610
    12.5837  12.6640  12.9745  13.4191  14.3428  14.6046  15.0102  15.6054
    16.6360  16.7532  17.4640  17.8240  18.5450  19.2903  20.0038  21.3121

          k = 0.2653 0.1532 0.0000 ( 15155 PWs)   bands (ev):

   -60.2394 -34.3938 -34.3565 -34.2364 -12.5409 -11.7778  -4.3551  -3.2117
    -3.0467  -1.9223  -1.0736  -0.7511  -0.1628   2.8101   2.9409   3.6084
     4.4601   7.2592   7.6884   8.7217   9.3757   9.6114  10.2318  11.2231
    12.5258  12.6548  12.9689  13.4520  14.2552  14.4930  14.9361  15.6024
    16.8244  16.9004  17.5307  17.7733  18.7561  19.2411  20.1916  21.3422

          k = 0.2551 0.1473 0.0000 ( 15155 PWs)   bands (ev):

   -60.2406 -34.3821 -34.3588 -34.2337 -12.5995 -11.8015  -4.3461  -3.1881
    -2.9685  -1.8733  -1.1274  -0.7123  -0.1146   2.7998   2.9656   3.5497
     4.4159   7.1771   7.6088   8.6809   9.4207   9.7035  10.1843  11.1798
    12.4662  12.6356  12.9772  13.4515  14.1715  14.4009  14.8987  15.6076
    16.8247  17.1722  17.6786  17.7207  18.8850  19.2730  20.3749  21.3690

          k = 0.2449 0.1414 0.0000 ( 15165 PWs)   bands (ev):

   -60.2417 -34.3703 -34.3612 -34.2309 -12.6574 -11.8250  -4.3460  -3.1571
    -2.8895  -1.8232  -1.1813  -0.6738  -0.0630   2.7938   2.9924   3.4931
     4.3698   7.0964   7.5298   8.6341   9.4407   9.7998  10.1504  11.1331
    12.4157  12.6017  12.9905  13.4158  14.0921  14.3336  14.8998  15.6216
    16.7811  17.4496  17.6662  17.8799  18.8743  19.4437  20.5446  21.3924

          k = 0.2347 0.1355 0.0000 ( 15175 PWs)   bands (ev):

   -60.2429 -34.3636 -34.3585 -34.2282 -12.7143 -11.8482  -4.3545  -3.1188
    -2.8100  -1.7720  -1.2350  -0.6360  -0.0091   2.7924   3.0211   3.4394
     4.3218   7.0172   7.4520   8.5832   9.4274   9.8986  10.1367  11.0846
    12.3783  12.5500  13.0051  13.3484  14.0172  14.2945  14.9360  15.6442
    16.7175  17.6102  17.7309  18.1103  18.7996  19.6778  20.6823  21.4127

          k = 0.2245 0.1296 0.0000 ( 15167 PWs)   bands (ev):

   -60.2441 -34.3659 -34.3467 -34.2255 -12.7701 -11.8709  -4.3709  -3.0735
    -2.7301  -1.7200  -1.2883  -0.5997   0.0461   2.7960   3.0514   3.3891
     4.2723   6.9400   7.3757   8.5289   9.3789   9.9975  10.1453  11.0363
    12.3541  12.4806  13.0204  13.2562  13.9470  14.2845  15.0002  15.6750
    16.6459  17.5527  18.0131  18.3577  18.7081  19.9293  20.7533  21.4306

          k = 0.2143 0.1237 0.0000 ( 15171 PWs)   bands (ev):

   -60.2453 -34.3683 -34.3351 -34.2228 -12.8246 -11.8932  -4.3939  -3.0220
    -2.6498  -1.6674  -1.3410  -0.5653   0.1016   2.8050   3.0833   3.3428
     4.2212   6.8648   7.3013   8.4715   9.3002  10.0935  10.1729  10.9899
    12.3407  12.3964  13.0371  13.1470  13.8815  14.3019  15.0847  15.7129
    16.5718  17.4940  18.2824  18.6158  18.6248  20.1835  20.7221  21.4485

          k = 0.2041 0.1178 0.0000 ( 15163 PWs)   bands (ev):

   -60.2464 -34.3706 -34.3236 -34.2202 -12.8777 -11.9149  -4.4226  -2.9651
    -2.5693  -1.6142  -1.3927  -0.5335   0.1564   2.8196   3.1164   3.3012
     4.1689   6.7918   7.2292   8.4108   9.1999  10.1828  10.2137  10.9472
    12.3033  12.3346  13.0271  13.0568  13.8208  14.3431  15.1829  15.7570
    16.4982  17.4345  18.4111  18.6810  18.8804  20.4298  20.5976  21.4714

          k = 0.1939 0.1119 0.0000 ( 15179 PWs)   bands (ev):

   -60.2476 -34.3728 -34.3123 -34.2176 -12.9291 -11.9360  -4.4556  -2.9038
    -2.4888  -1.5608  -1.4434  -0.5050   0.2097   2.8400   3.1506   3.2649
     4.1156   6.7212   7.1594   8.3465   9.0862  10.2603  10.2631  10.9100
    12.2088  12.3315  12.9013  13.0811  13.7649  14.4040  15.2903  15.8062
    16.4269  17.3743  18.3369  18.9400  19.1471  20.4213  20.6520  21.5109

          k = 0.1837 0.1060 0.0000 ( 15173 PWs)   bands (ev):

   -60.2487 -34.3750 -34.3013 -34.2150 -12.9787 -11.9564  -4.4917  -2.8393
    -2.4082  -1.5072  -1.4926  -0.4805   0.2607   2.8662   3.1856   3.2343
     4.0615   6.6531   7.0924   8.2776   8.9659  10.3183  10.3204  10.8786
    12.1219  12.3276  12.7731  13.1111  13.7137  14.4805  15.4031  15.8593
    16.3589  17.3139  18.2325  19.2292  19.4044  20.2311  20.8232  21.5894

          k = 0.1735 0.1002 0.0000 ( 15175 PWs)   bands (ev):

   -60.2497 -34.3772 -34.2905 -34.2125 -13.0265 -11.9760  -4.5300  -2.7723
    -2.3277  -1.5404  -1.4539  -0.4605   0.3087   2.8981   3.2098   3.2211
     4.0069   6.5875   7.0281   8.2033   8.8448  10.3587  10.3774  10.8505
    12.0529  12.3202  12.6448  13.1474  13.6672  14.5690  15.5189  15.9152
    16.2953  17.2535  18.1237  19.5210  19.6009  20.0925  20.9179  21.7260

          k = 0.1633 0.0943 0.0000 ( 15179 PWs)   bands (ev):

   -60.2508 -34.3792 -34.2801 -34.2101 -13.0721 -11.9947  -4.5695  -2.7039
    -2.2474  -1.5864  -1.4009  -0.4458   0.3534   2.9356   3.1917   3.2569
     3.9522   6.5246   6.9669   8.1220   8.7277  10.3744  10.4395  10.8188
    12.0122  12.3076  12.5184  13.1894  13.6252  14.6661  15.6358  15.9730
    16.2370  17.1936  18.0148  19.5753  19.8063  20.1733  20.9442  21.8953

          k = 0.1531 0.0884 0.0000 ( 15191 PWs)   bands (ev):

   -60.2518 -34.3812 -34.2700 -34.2078 -13.1157 -12.0126  -4.6095  -2.6348
    -2.1672  -1.6305  -1.3487  -0.4366   0.3943   2.9783   3.1801   3.2926
     3.8976   6.4644   6.9088   8.0328   8.6187  10.3709  10.5040  10.7744
    12.0076  12.2892  12.3950  13.2358  13.5877  14.7690  15.7522  16.0319
    16.1850  17.1344  17.9075  19.3874  20.0700  20.4177  20.9411  22.0164

          k = 0.1429 0.0825 0.0000 ( 15211 PWs)   bands (ev):

   -60.2527 -34.3831 -34.2604 -34.2056 -13.1569 -12.0296  -4.6492  -2.5658
    -2.0873  -1.6725  -1.2974  -0.4335   0.4313   3.0257   3.1750   3.3280
     3.8436   6.4069   6.8539   7.9354   8.5205  10.3537  10.5705  10.7118
    12.0408  12.2651  12.2759  13.2849  13.5543  14.8747  15.8670  16.0909
    16.1405  17.0765  17.8030  19.1631  20.2774  20.7014  20.9645  22.0769

          k = 0.1327 0.0766 0.0000 ( 15211 PWs)   bands (ev):

   -60.2536 -34.3849 -34.2512 -34.2035 -13.1958 -12.0456  -4.6880  -2.4978
    -2.0076  -1.7123  -1.2475  -0.4366   0.4643   3.0770   3.1762   3.3628
     3.7906   6.3521   6.8024   7.8308   8.4341  10.3273  10.6320  10.6385
    12.1075  12.1619  12.2362  13.3349  13.5250  14.9802  15.9790  16.1052
    16.1496  17.0202  17.7020  18.9308  20.3744  20.9962  21.0794  22.0347

          k = 0.1224 0.0707 0.0000 ( 15209 PWs)   bands (ev):

   -60.2545 -34.3866 -34.2426 -34.2016 -13.2321 -12.0606  -4.7255  -2.4313
    -1.9284  -1.7497  -1.1992  -0.4462   0.4934   3.1315   3.1832   3.3967
     3.7390   6.3002   6.7543   7.7213   8.3592  10.2942  10.5410  10.7078
    12.0537  12.2002  12.2030  13.3839  13.4993  15.0817  16.0814  16.0874
    16.2073  16.9659  17.6049  18.6982  20.3659  21.2850  21.2894  21.9050

          k = 0.1122 0.0648 0.0000 ( 15225 PWs)   bands (ev):

   -60.2553 -34.3882 -34.2345 -34.1997 -13.2659 -12.0745  -4.7612  -2.3671
    -1.8496  -1.7845  -1.1528  -0.4622   0.5188   3.1883   3.1954   3.4293
     3.6891   6.2510   6.7098   7.6097   8.2944  10.2542  10.4471  10.7779
    11.9519  12.1666  12.3113  13.4305  13.4772  15.1753  16.0718  16.1913
    16.2637  16.9141  17.5123  18.4688  20.3070  21.5225  21.5272  21.8140

          k = 0.1020 0.0589 0.0000 ( 15233 PWs)   bands (ev):

   -60.2560 -34.3897 -34.2270 -34.1980 -13.2970 -12.0874  -4.7949  -2.3058
    -1.8168  -1.7713  -1.1088  -0.4843   0.5406   3.2119   3.2462   3.4604
     3.6416   6.2048   6.6688   7.4992   8.2383  10.2029  10.3615  10.8483
    11.8571  12.1275  12.4343  13.4583  13.4735  15.2561  16.0797  16.2897
    16.3184  16.8650  17.4243  18.2450  20.2308  21.4909  21.7482  21.9835

          k = 0.0918 0.0530 0.0000 ( 15229 PWs)   bands (ev):

   -60.2567 -34.3911 -34.2201 -34.1964 -13.3254 -12.0991  -4.8261  -2.2481
    -1.8462  -1.6937  -1.0674  -0.5124   0.5591   3.2319   3.3042   3.4896
     3.5967   6.1615   6.6316   7.3923   8.1896  10.1343  10.2953  10.9187
    11.7699  12.0864  12.5642  13.4423  13.5121  15.3205  16.1074  16.3712
    16.3820  16.8192  17.3412  18.0288  20.1512  21.3340  21.9367  22.2260

          k = 0.0816 0.0471 0.0000 ( 15239 PWs)   bands (ev):

   -60.2573 -34.3923 -34.2138 -34.1950 -13.3510 -12.1096  -4.8546  -2.1946
    -1.8729  -1.6169  -1.0292  -0.5461   0.5747   3.2542   3.3610   3.5167
     3.5551   6.1214   6.5980   7.2915   8.1474  10.0517  10.2490  10.9883
    11.6906  12.0439  12.6967  13.4290  13.5459  15.3668  16.1547  16.4222
    16.4673  16.7770  17.2631  17.8223  20.0744  21.1648  22.0841  22.2862

          k = 0.0714 0.0412 0.0000 ( 15235 PWs)   bands (ev):

   -60.2578 -34.3934 -34.2082 -34.1937 -13.3737 -12.1190  -4.8802  -2.1457
    -1.8966  -1.5412  -0.9943  -0.5848   0.5877   3.2778   3.4155   3.5170
     3.5413   6.0845   6.5683   7.1987   8.1110   9.9658  10.2152  11.0567
    11.6196  12.0005  12.8280  13.4180  13.5748  15.3965  16.2181  16.4713
    16.5448  16.7387  17.1899  17.6276  20.0037  20.9986  22.2019  22.2700

          k = 0.0612 0.0353 0.0000 ( 15241 PWs)   bands (ev):

   -60.2583 -34.3943 -34.2033 -34.1926 -13.3935 -12.1271  -4.9028  -2.1022
    -1.9172  -1.4669  -0.9633  -0.6278   0.5982   3.3013   3.4663   3.4830
     3.5633   6.0511   6.5424   7.1153   8.0799   9.8840  10.1888  11.1230
    11.5573  11.9568  12.9544  13.4092  13.5986  15.4134  16.2916  16.5186
    16.6138  16.7048  17.1215  17.4474  19.9409  20.8419  22.2476  22.3013

          k = 0.0510 0.0295 0.0000 ( 15231 PWs)   bands (ev):

   -60.2587 -34.3952 -34.1991 -34.1916 -13.4103 -12.1341  -4.9221  -2.0644
    -1.9349  -1.3945  -0.9364  -0.6744   0.6067   3.3237   3.4535   3.5121
     3.5823   6.0216   6.5204   7.0429   8.0538   9.8105  10.1675  11.1863
    11.5041  11.9134  13.0721  13.4022  13.6178  15.4215  16.3685  16.5645
    16.6735  16.6755  17.0577  17.2846  19.8869  20.6992  22.2267  22.3882

          k = 0.0408 0.0236 0.0000 ( 15233 PWs)   bands (ev):

   -60.2591 -34.3958 -34.1956 -34.1909 -13.4242 -12.1398  -4.9381  -2.0329
    -1.9494  -1.3248  -0.9139  -0.7234   0.6133   3.3437   3.4288   3.5516
     3.5982   5.9965   6.5023   6.9823   8.0326   9.7476  10.1506  11.2452
    11.4601  11.8713  13.1771  13.3968  13.6326  15.4245  16.4423  16.6093
    16.6512  16.7234  16.9981  17.1425  19.8424  20.5749  22.2090  22.4638

          k = 0.0306 0.0177 0.0000 ( 15221 PWs)   bands (ev):

   -60.2593 -34.3964 -34.1929 -34.1902 -13.4350 -12.1442  -4.9506  -2.0079
    -1.9607  -1.2594  -0.8961  -0.7731   0.6182   3.3605   3.4092   3.5838
     3.6108   5.9761   6.4882   6.9344   8.0162   9.6973  10.1376  11.2978
    11.4257  11.8322  13.2651  13.3928  13.6436  15.4247  16.5076  16.6320
    16.6532  16.7629  16.9426  17.0248  19.8076  20.4728  22.1950  22.5273

          k = 0.0204 0.0118 0.0000 ( 15217 PWs)   bands (ev):

   -60.2595 -34.3967 -34.1910 -34.1898 -13.4427 -12.1474  -4.9596  -1.9899
    -1.9688  -1.2013  -0.8832  -0.8201   0.6215   3.3731   3.3950   3.6076
     3.6198   5.9611   6.4781   6.8998   8.0044   9.6605  10.1283  11.3411
    11.4010  11.7989  13.3319  13.3901  13.6510  15.4240  16.5598  16.6181
    16.6966  16.7914  16.8909  16.9353  19.7828  20.3968  22.1849  22.5760

          k = 0.0102 0.0059 0.0000 ( 15201 PWs)   bands (ev):

   -60.2596 -34.3970 -34.1898 -34.1895 -13.4473 -12.1493  -4.9650  -1.9789
    -1.9736  -1.1573  -0.8754  -0.8575   0.6235   3.3809   3.3864   3.6222
     3.6253   5.9520   6.4720   6.8789   7.9974   9.6381  10.1228  11.3705
    11.3861  11.7755  13.3737  13.3885  13.6554  15.4231  16.5945  16.6097
    16.7387  16.8087  16.8439  16.8781  19.7679  20.3498  22.1788  22.6070

          k = 0.0000 0.0000 0.0000 ( 15211 PWs)   bands (ev):

   -60.2597 -34.3970 -34.1895 -34.1895 -13.4489 -12.1500  -4.9668  -1.9753
    -1.9753  -1.1398  -0.8728  -0.8728   0.6242   3.3835   3.3835   3.6272
     3.6272   5.9488   6.4700   6.8719   7.9951   9.6306  10.1210  11.3811
    11.3811  11.7669  13.3880  13.3880  13.6568  15.4228  16.6069  16.6069
    16.7665  16.8144  16.8144  16.8581  19.7629  20.3339  22.1767  22.6177

     Writing all to output data dir ./MoS2.save/
 
     init_run     :      0.16s CPU      0.60s WALL (       1 calls)
     electrons    :     33.09s CPU     33.55s WALL (       1 calls)

     Called by init_run:
     wfcinit      :      0.00s CPU      0.00s WALL (       1 calls)
     wfcinit:wfcr :      0.70s CPU      0.79s WALL (      64 calls)
     potinit      :      0.05s CPU      0.09s WALL (       1 calls)
     hinit0       :      0.06s CPU      0.45s WALL (       1 calls)

     Called by electrons:
     c_bands      :     33.09s CPU     33.54s WALL (       1 calls)
     v_of_rho     :      0.00s CPU      0.01s WALL (       1 calls)
     v_h          :      0.00s CPU      0.00s WALL (       1 calls)
     v_xc         :      0.00s CPU      0.01s WALL (       1 calls)

     Called by c_bands:
     init_us_2    :      0.01s CPU      0.01s WALL (      64 calls)
     init_us_2:cp :      0.01s CPU      0.01s WALL (      64 calls)
     cegterg      :     29.31s CPU     29.68s WALL (     208 calls)

     Called by sum_band:

     Called by *egterg:
     cdiaghg      :     12.16s CPU     12.30s WALL (    3690 calls)
     cegterg:over :      3.05s CPU      3.11s WALL (    3626 calls)
     cegterg:upda :      1.93s CPU      1.94s WALL (    3626 calls)
     cegterg:last :      2.21s CPU      2.21s WALL (    2142 calls)
     cdiaghg:chol :      0.55s CPU      0.56s WALL (    3690 calls)
     cdiaghg:inve :      0.09s CPU      0.09s WALL (    3690 calls)
     cdiaghg:para :      0.86s CPU      0.87s WALL (    7380 calls)
     h_psi        :     10.17s CPU     10.39s WALL (    3898 calls)
     g_psi        :      0.05s CPU      0.05s WALL (    3626 calls)

     Called by h_psi:
     h_psi:calbec :      0.48s CPU      0.53s WALL (    3898 calls)
     vloc_psi     :      9.47s CPU      9.63s WALL (    3898 calls)
     add_vuspsi   :      0.18s CPU      0.18s WALL (    3898 calls)

     General routines
     calbec       :      0.47s CPU      0.53s WALL (    3898 calls)
     fft          :      0.03s CPU      0.42s WALL (      11 calls)
     fftw         :      8.82s CPU      8.98s WALL (  173326 calls)
 
     Parallel routines
 
     PWSCF        :     35.12s CPU     40.62s WALL

 
   This run was terminated on:  10:28:12   3May2023            

=------------------------------------------------------------------------------=
   JOB DONE.
=------------------------------------------------------------------------------=
