
     Program BANDS v.7.0 starts on  6Jul2023 at 20:25:14 

     This program is part of the open-source Quantum ESPRESSO suite
     for quantum simulation of materials; please cite
         "P. Giannozzi et al., J. Phys.:Condens. Matter 21 395502 (2009);
         "P. Giannozzi et al., J. Phys.:Condens. Matter 29 465901 (2017);
         "P. Giannozzi et al., J. Chem. Phys. 152 154105 (2020);
          URL http://www.quantum-espresso.org", 
     in publications or presentations arising from this work. More details at
     http://www.quantum-espresso.org/quote

     Parallel version (MPI), running on   144 processors

     MPI processes distributed on     2 nodes
     K-points division:     npool     =       2
     R & G space division:  proc/nbgrp/npool/nimage =      72
     178612 MiB available memory on the printing compute node when the environment starts
 

     Reading xml data from directory:

     ./WSe2.save/

     IMPORTANT: XC functional enforced from input :
     Exchange-correlation= PBE
                           (   1   4   3   4   0   0   0)
     Any further DFT definition will be discarded
     Please, verify this is what you really want

 
     Parallelization info
     --------------------
     sticks:   dense  smooth     PW     G-vecs:    dense   smooth      PW
     Min          14      14      4                 1826     1826     274
     Max          15      15      5                 1869     1869     297
     Sum        1069    1069    313               133409   133409   20415
 
     Using Slab Decomposition
 
     Reading collected, re-writing distributed wavefunctions
     high-symmetry point:  0.0000 0.0000 0.0000   x coordinate   0.0000
     high-symmetry point:  0.3330 0.5768 0.0000   x coordinate   0.6660
     high-symmetry point:  0.5000 0.2887 0.0000   x coordinate   0.9990
     high-symmetry point:  0.0000 0.0000 0.0000   x coordinate   1.5764

     Plottable bands (eV) written to file bands.dat.gnu
     Bands written to file bands.dat

 **************************************************************************

                    xk=(   0.00000,   0.00000,   0.00000  )

     double point group C_3v (3m)  
     there are  6 classes and  3 irreducible representations
     the character table:

       E     -E    2C3   -2C3  3s_v  -3s_v
                                          
G_4    2.00 -2.00  1.00 -1.00  0.00  0.00
G_5    1.00 -1.00 -1.00  1.00  0.00  0.00
G_6    1.00 -1.00 -1.00  1.00  0.00  0.00

     imaginary part

       E     -E    2C3   -2C3  3s_v  -3s_v
                                          
G_4    0.00  0.00  0.00  0.00  0.00  0.00
G_5    0.00  0.00  0.00  0.00  1.00 -1.00
G_6    0.00  0.00  0.00  0.00 -1.00  1.00

     the symmetry operations in each class and the name of the first element:

     E             1
                                                                 
     -E           -1
                                                                 
     2C3           2    3
                                                                 
     -2C3         -2   -3
                                                                 
     3s_v          5    6   -4
                                                                 
     -3s_v         4   -5   -6
                                                                 

     Band symmetry, C_3v (3m)   double point group:

     e(  1 -  2) =    -71.42339  eV     2   --> G_4   L_6      
     e(  3 -  4) =    -45.66326  eV     2   --> G_5   L_4      
     e(  3 -  4) =    -45.66326  eV     2   --> G_6   L_5      
     e(  5 -  6) =    -45.66302  eV     2   --> G_5   L_4      
     e(  5 -  6) =    -45.66302  eV     2   --> G_6   L_5      
     e(  7 -  8) =    -45.62645  eV     2   --> G_4   L_6      
     e(  9 - 10) =    -45.62601  eV     2   --> G_4   L_6      
     e( 11 - 12) =    -44.77846  eV     2   --> G_4   L_6      
     e( 13 - 14) =    -44.77691  eV     2   --> G_4   L_6      
     e( 15 - 16) =    -44.74630  eV     2   --> G_5   L_4      
     e( 15 - 16) =    -44.74630  eV     2   --> G_6   L_5      
     e( 17 - 18) =    -44.74540  eV     2   --> G_5   L_4      
     e( 17 - 18) =    -44.74540  eV     2   --> G_6   L_5      
     e( 19 - 20) =    -44.72935  eV     2   --> G_4   L_6      
     e( 21 - 22) =    -44.72910  eV     2   --> G_4   L_6      
     e( 23 - 24) =    -42.81052  eV     2   --> G_4   L_6      
     e( 25 - 26) =    -33.07115  eV     2   --> G_4   L_6      
     e( 27 - 28) =    -32.96644  eV     2   --> G_5   L_4      
     e( 27 - 28) =    -32.96644  eV     2   --> G_6   L_5      
     e( 29 - 30) =    -12.25314  eV     2   --> G_4   L_6      
     e( 31 - 32) =    -11.01786  eV     2   --> G_4   L_6      
     e( 33 - 34) =     -3.67141  eV     2   --> G_4   L_6      
     e( 35 - 36) =     -0.01308  eV     2   --> G_5   L_4      
     e( 35 - 36) =     -0.01308  eV     2   --> G_6   L_5      
     e( 37 - 38) =      0.08353  eV     2   --> G_4   L_6      
     e( 39 - 40) =      0.39966  eV     2   --> G_4   L_6      
     e( 41 - 42) =      0.99795  eV     2   --> G_4   L_6      
     e( 43 - 44) =      1.39803  eV     2   --> G_5   L_4      
     e( 43 - 44) =      1.39803  eV     2   --> G_6   L_5      
     e( 45 - 46) =      2.19826  eV     2   --> G_4   L_6      
     e( 47 - 48) =      5.17537  eV     2   --> G_4   L_6      
     e( 49 - 50) =      5.41790  eV     2   --> G_5   L_4      
     e( 49 - 50) =      5.41790  eV     2   --> G_6   L_5      
     e( 51 - 52) =      5.48480  eV     2   --> G_4   L_6      
     e( 53 - 54) =      5.66765  eV     2   --> G_5   L_4      
     e( 53 - 54) =      5.66765  eV     2   --> G_6   L_5      
     e( 55 - 56) =      6.62231  eV     2   --> G_4   L_6      
     e( 57 - 58) =      7.46803  eV     2   --> G_4   L_6      
     e( 59 - 60) =      7.62766  eV     2   --> G_4   L_6      
     e( 61 - 62) =      9.18023  eV     2   --> G_4   L_6      
     e( 63 - 64) =     10.50235  eV     2   --> G_4   L_6      
     e( 65 - 66) =     11.23774  eV     2   --> G_4   L_6      
     e( 67 - 68) =     12.71740  eV     2   --> G_4   L_6      
     e( 69 - 70) =     12.83641  eV     2   --> G_4   L_6      
     e( 71 - 72) =     13.18083  eV     2   --> G_5   L_4      
     e( 71 - 72) =     13.18083  eV     2   --> G_6   L_5      
     e( 73 - 74) =     14.46488  eV     2   --> G_4   L_6      
     e( 75 - 76) =     15.34534  eV     2   --> G_4   L_6      
     e( 77 - 78) =     15.37692  eV     2   --> G_5   L_4      
     e( 77 - 78) =     15.37692  eV     2   --> G_6   L_5      
     e( 79 - 80) =     16.31090  eV     2   --> G_4   L_6      

 **************************************************************************

 **************************************************************************

                    xk=(   0.00680,   0.01177,   0.00000  )

     double point group C_1 (1)    
     there are  2 classes and  1 irreducible representations
     the character table:

       E     -E   
                  
G_2    1.00 -1.00

     the symmetry operations in each class and the name of the first element:

     E             1
                                                                 
     -E           -1
                                                                 

     Band symmetry, C_1 (1)     double point group:

     e(  1 -  2) =    -71.42338  eV     2   -->   2 G_2            
     e(  3 -  4) =    -45.66326  eV     2   -->   2 G_2            
     e(  5 -  6) =    -45.66302  eV     2   -->   2 G_2            
     e(  7 -  8) =    -45.62645  eV     2   -->   2 G_2            
     e(  9 - 10) =    -45.62601  eV     2   -->   2 G_2            
     e( 11 - 12) =    -44.77845  eV     2   -->   2 G_2            
     e( 13 - 14) =    -44.77691  eV     2   -->   2 G_2            
     e( 15 - 16) =    -44.74630  eV     2   -->   2 G_2            
     e( 17 - 18) =    -44.74540  eV     2   -->   2 G_2            
     e( 19 - 20) =    -44.72935  eV     2   -->   2 G_2            
     e( 21 - 22) =    -44.72909  eV     2   -->   2 G_2            
     e( 23 - 24) =    -42.81057  eV     2   -->   2 G_2            
     e( 25 - 26) =    -33.07118  eV     2   -->   2 G_2            
     e( 27 - 28) =    -32.96667  eV     2   -->   2 G_2            
     e( 29 - 30) =    -12.25112  eV     2   -->   2 G_2            
     e( 31 - 32) =    -11.01684  eV     2   -->   2 G_2            
     e( 33 - 34) =     -3.66878  eV     2   -->   2 G_2            
     e( 35 - 36) =     -0.01539  eV     2   -->   2 G_2            
     e( 37 - 37) =      0.08050  eV     1   --> G_2            
     e( 38 - 38) =      0.08061  eV     1   --> G_2            
     e( 39 - 39) =      0.39432  eV     1   --> G_2            
     e( 40 - 40) =      0.39453  eV     1   --> G_2            
     e( 41 - 41) =      0.99826  eV     1   --> G_2            
     e( 42 - 42) =      0.99851  eV     1   --> G_2            
     e( 43 - 43) =      1.39596  eV     1   --> G_2            
     e( 44 - 44) =      1.39629  eV     1   --> G_2            
     e( 45 - 46) =      2.19752  eV     2   -->   2 G_2            
     e( 47 - 47) =      5.17457  eV     1   --> G_2            
     e( 48 - 48) =      5.17494  eV     1   --> G_2            
     e( 49 - 49) =      5.41199  eV     1   --> G_2            
     e( 50 - 50) =      5.41304  eV     1   --> G_2            
     e( 51 - 51) =      5.47830  eV     1   --> G_2            
     e( 52 - 52) =      5.47923  eV     1   --> G_2            
     e( 53 - 53) =      5.66220  eV     1   --> G_2            
     e( 54 - 54) =      5.66237  eV     1   --> G_2            
     e( 55 - 56) =      6.63264  eV     2   -->   2 G_2            
     e( 57 - 58) =      7.47095  eV     2   -->   2 G_2            
     e( 59 - 60) =      7.63539  eV     2   -->   2 G_2            
     e( 61 - 62) =      9.18385  eV     2   -->   2 G_2            
     e( 63 - 64) =     10.51546  eV     2   -->   2 G_2            
     e( 65 - 66) =     11.24013  eV     2   -->   2 G_2            
     e( 67 - 68) =     12.68539  eV     2   -->   2 G_2            
     e( 69 - 69) =     12.85978  eV     1   --> G_2            
     e( 70 - 70) =     12.86069  eV     1   --> G_2            
     e( 71 - 71) =     13.18710  eV     1   --> G_2            
     e( 72 - 72) =     13.18808  eV     1   --> G_2            
     e( 73 - 74) =     14.47163  eV     2   -->   2 G_2            
     e( 75 - 75) =     15.30638  eV     1   --> G_2            
     e( 76 - 76) =     15.30677  eV     1   --> G_2            
     e( 77 - 77) =     15.36605  eV     1   --> G_2            
     e( 78 - 78) =     15.36652  eV     1   --> G_2            
     e( 79 - 80) =     16.34001  eV     2   -->   2 G_2            

 **************************************************************************

 **************************************************************************

                    xk=(   0.01359,   0.02354,   0.00000  )

     Band symmetry, C_1 (1)     double point group:

     e(  1 -  2) =    -71.42334  eV     2   -->   2 G_2            
     e(  3 -  4) =    -45.66326  eV     2   -->   2 G_2            
     e(  5 -  6) =    -45.66301  eV     2   -->   2 G_2            
     e(  7 -  8) =    -45.62645  eV     2   -->   2 G_2            
     e(  9 - 10) =    -45.62601  eV     2   -->   2 G_2            
     e( 11 - 12) =    -44.77844  eV     2   -->   2 G_2            
     e( 13 - 14) =    -44.77690  eV     2   -->   2 G_2            
     e( 15 - 16) =    -44.74631  eV     2   -->   2 G_2            
     e( 17 - 18) =    -44.74541  eV     2   -->   2 G_2            
     e( 19 - 20) =    -44.72937  eV     2   -->   2 G_2            
     e( 21 - 22) =    -44.72907  eV     2   -->   2 G_2            
     e( 23 - 24) =    -42.81072  eV     2   -->   2 G_2            
     e( 25 - 26) =    -33.07125  eV     2   -->   2 G_2            
     e( 27 - 28) =    -32.96739  eV     2   -->   2 G_2            
     e( 29 - 30) =    -12.24505  eV     2   -->   2 G_2            
     e( 31 - 32) =    -11.01378  eV     2   -->   2 G_2            
     e( 33 - 34) =     -3.66088  eV     2   -->   2 G_2            
     e( 35 - 35) =     -0.02382  eV     1   --> G_2            
     e( 36 - 36) =     -0.02332  eV     1   --> G_2            
     e( 37 - 37) =      0.07238  eV     1   --> G_2            
     e( 38 - 38) =      0.07332  eV     1   --> G_2            
     e( 39 - 39) =      0.37853  eV     1   --> G_2            
     e( 40 - 40) =      0.38022  eV     1   --> G_2            
     e( 41 - 41) =      0.99821  eV     1   --> G_2            
     e( 42 - 42) =      1.00019  eV     1   --> G_2            
     e( 43 - 43) =      1.38928  eV     1   --> G_2            
     e( 44 - 44) =      1.39189  eV     1   --> G_2            
     e( 45 - 46) =      2.19526  eV     2   -->   2 G_2            
     e( 47 - 47) =      5.17061  eV     1   --> G_2            
     e( 48 - 48) =      5.17347  eV     1   --> G_2            
     e( 49 - 49) =      5.39139  eV     1   --> G_2            
     e( 50 - 50) =      5.39929  eV     1   --> G_2            
     e( 51 - 51) =      5.45875  eV     1   --> G_2            
     e( 52 - 52) =      5.46611  eV     1   --> G_2            
     e( 53 - 53) =      5.64749  eV     1   --> G_2            
     e( 54 - 54) =      5.64919  eV     1   --> G_2            
     e( 55 - 55) =      6.66190  eV     1   --> G_2            
     e( 56 - 56) =      6.66214  eV     1   --> G_2            
     e( 57 - 58) =      7.47968  eV     2   -->   2 G_2            
     e( 59 - 60) =      7.65858  eV     2   -->   2 G_2            
     e( 61 - 62) =      9.19471  eV     2   -->   2 G_2            
     e( 63 - 64) =     10.55434  eV     2   -->   2 G_2            
     e( 65 - 66) =     11.24733  eV     2   -->   2 G_2            
     e( 67 - 67) =     12.61758  eV     1   --> G_2            
     e( 68 - 68) =     12.61843  eV     1   --> G_2            
     e( 69 - 69) =     12.90198  eV     1   --> G_2            
     e( 70 - 70) =     12.90777  eV     1   --> G_2            
     e( 71 - 71) =     13.20305  eV     1   --> G_2            
     e( 72 - 72) =     13.21037  eV     1   --> G_2            
     e( 73 - 73) =     14.49079  eV     1   --> G_2            
     e( 74 - 74) =     14.49090  eV     1   --> G_2            
     e( 75 - 75) =     15.18043  eV     1   --> G_2            
     e( 76 - 76) =     15.18081  eV     1   --> G_2            
     e( 77 - 77) =     15.36542  eV     1   --> G_2            
     e( 78 - 78) =     15.36644  eV     1   --> G_2            
     e( 79 - 80) =     16.40259  eV     2   -->   2 G_2            

 **************************************************************************

 **************************************************************************

                    xk=(   0.02039,   0.03531,   0.00000  )

     Band symmetry, C_1 (1)     double point group:

     e(  1 -  2) =    -71.42328  eV     2   -->   2 G_2            
     e(  3 -  4) =    -45.66325  eV     2   -->   2 G_2            
     e(  5 -  6) =    -45.66301  eV     2   -->   2 G_2            
     e(  7 -  8) =    -45.62644  eV     2   -->   2 G_2            
     e(  9 - 10) =    -45.62601  eV     2   -->   2 G_2            
     e( 11 - 12) =    -44.77842  eV     2   -->   2 G_2            
     e( 13 - 14) =    -44.77689  eV     2   -->   2 G_2            
     e( 15 - 16) =    -44.74632  eV     2   -->   2 G_2            
     e( 17 - 18) =    -44.74542  eV     2   -->   2 G_2            
     e( 19 - 20) =    -44.72940  eV     2   -->   2 G_2            
     e( 21 - 22) =    -44.72904  eV     2   -->   2 G_2            
     e( 23 - 24) =    -42.81096  eV     2   -->   2 G_2            
     e( 25 - 26) =    -33.07139  eV     2   -->   2 G_2            
     e( 27 - 28) =    -32.96859  eV     2   -->   2 G_2            
     e( 29 - 30) =    -12.23497  eV     2   -->   2 G_2            
     e( 31 - 32) =    -11.00870  eV     2   -->   2 G_2            
     e( 33 - 34) =     -3.64775  eV     2   -->   2 G_2            
     e( 35 - 35) =     -0.04223  eV     1   --> G_2            
     e( 36 - 36) =     -0.04071  eV     1   --> G_2            
     e( 37 - 37) =      0.06177  eV     1   --> G_2            
     e( 38 - 38) =      0.06521  eV     1   --> G_2            
     e( 39 - 39) =      0.35348  eV     1   --> G_2            
     e( 40 - 40) =      0.35932  eV     1   --> G_2            
     e( 41 - 41) =      0.99567  eV     1   --> G_2            
     e( 42 - 42) =      1.00227  eV     1   --> G_2            
     e( 43 - 43) =      1.37755  eV     1   --> G_2            
     e( 44 - 44) =      1.38623  eV     1   --> G_2            
     e( 45 - 45) =      2.19134  eV     1   --> G_2            
     e( 46 - 46) =      2.19164  eV     1   --> G_2            
     e( 47 - 47) =      5.16046  eV     1   --> G_2            
     e( 48 - 48) =      5.16904  eV     1   --> G_2            
     e( 49 - 49) =      5.35373  eV     1   --> G_2            
     e( 50 - 50) =      5.37429  eV     1   --> G_2            
     e( 51 - 51) =      5.43042  eV     1   --> G_2            
     e( 52 - 52) =      5.45132  eV     1   --> G_2            
     e( 53 - 53) =      5.62727  eV     1   --> G_2            
     e( 54 - 54) =      5.63433  eV     1   --> G_2            
     e( 55 - 55) =      6.70590  eV     1   --> G_2            
     e( 56 - 56) =      6.70653  eV     1   --> G_2            
     e( 57 - 58) =      7.49410  eV     2   -->   2 G_2            
     e( 59 - 60) =      7.69719  eV     2   -->   2 G_2            
     e( 61 - 61) =      9.21286  eV     1   --> G_2            
     e( 62 - 62) =      9.21297  eV     1   --> G_2            
     e( 63 - 64) =     10.61765  eV     2   -->   2 G_2            
     e( 65 - 66) =     11.25937  eV     2   -->   2 G_2            
     e( 67 - 67) =     12.53342  eV     1   --> G_2            
     e( 68 - 68) =     12.53714  eV     1   --> G_2            
     e( 69 - 69) =     12.94615  eV     1   --> G_2            
     e( 70 - 70) =     12.96284  eV     1   --> G_2            
     e( 71 - 71) =     13.22442  eV     1   --> G_2            
     e( 72 - 72) =     13.24696  eV     1   --> G_2            
     e( 73 - 73) =     14.51922  eV     1   --> G_2            
     e( 74 - 74) =     14.51947  eV     1   --> G_2            
     e( 75 - 75) =     15.00979  eV     1   --> G_2            
     e( 76 - 76) =     15.01073  eV     1   --> G_2            
     e( 77 - 77) =     15.36877  eV     1   --> G_2            
     e( 78 - 78) =     15.37018  eV     1   --> G_2            
     e( 79 - 79) =     16.46169  eV     1   --> G_2            
     e( 80 - 80) =     16.46189  eV     1   --> G_2            

 **************************************************************************

 **************************************************************************

                    xk=(   0.02718,   0.04708,   0.00000  )

     Band symmetry, C_1 (1)     double point group:

     e(  1 -  2) =    -71.42319  eV     2   -->   2 G_2            
     e(  3 -  4) =    -45.66323  eV     2   -->   2 G_2            
     e(  5 -  6) =    -45.66300  eV     2   -->   2 G_2            
     e(  7 -  8) =    -45.62643  eV     2   -->   2 G_2            
     e(  9 - 10) =    -45.62601  eV     2   -->   2 G_2            
     e( 11 - 12) =    -44.77839  eV     2   -->   2 G_2            
     e( 13 - 14) =    -44.77688  eV     2   -->   2 G_2            
     e( 15 - 16) =    -44.74634  eV     2   -->   2 G_2            
     e( 17 - 18) =    -44.74544  eV     2   -->   2 G_2            
     e( 19 - 20) =    -44.72942  eV     2   -->   2 G_2            
     e( 21 - 22) =    -44.72900  eV     2   -->   2 G_2            
     e( 23 - 24) =    -42.81131  eV     2   -->   2 G_2            
     e( 25 - 26) =    -33.07158  eV     2   -->   2 G_2            
     e( 27 - 28) =    -32.97024  eV     2   -->   2 G_2            
     e( 29 - 29) =    -12.22090  eV     1   --> G_2            
     e( 30 - 30) =    -12.22073  eV     1   --> G_2            
     e( 31 - 32) =    -11.00160  eV     2   -->   2 G_2            
     e( 33 - 33) =     -3.62946  eV     1   --> G_2            
     e( 34 - 34) =     -3.62934  eV     1   --> G_2            
     e( 35 - 35) =     -0.07420  eV     1   --> G_2            
     e( 36 - 36) =     -0.07093  eV     1   --> G_2            
     e( 37 - 37) =      0.05022  eV     1   --> G_2            
     e( 38 - 38) =      0.05899  eV     1   --> G_2            
     e( 39 - 39) =      0.32160  eV     1   --> G_2            
     e( 40 - 40) =      0.33571  eV     1   --> G_2            
     e( 41 - 41) =      0.98802  eV     1   --> G_2            
     e( 42 - 42) =      1.00331  eV     1   --> G_2            
     e( 43 - 43) =      1.36079  eV     1   --> G_2            
     e( 44 - 44) =      1.38087  eV     1   --> G_2            
     e( 45 - 45) =      2.18558  eV     1   --> G_2            
     e( 46 - 46) =      2.18624  eV     1   --> G_2            
     e( 47 - 47) =      5.14112  eV     1   --> G_2            
     e( 48 - 48) =      5.15672  eV     1   --> G_2            
     e( 49 - 49) =      5.30345  eV     1   --> G_2            
     e( 50 - 50) =      5.33044  eV     1   --> G_2            
     e( 51 - 51) =      5.40362  eV     1   --> G_2            
     e( 52 - 52) =      5.43832  eV     1   --> G_2            
     e( 53 - 53) =      5.60521  eV     1   --> G_2            
     e( 54 - 54) =      5.62453  eV     1   --> G_2            
     e( 55 - 55) =      6.75980  eV     1   --> G_2            
     e( 56 - 56) =      6.76094  eV     1   --> G_2            
     e( 57 - 58) =      7.51403  eV     2   -->   2 G_2            
     e( 59 - 60) =      7.75102  eV     2   -->   2 G_2            
     e( 61 - 61) =      9.23841  eV     1   --> G_2            
     e( 62 - 62) =      9.23866  eV     1   --> G_2            
     e( 63 - 63) =     10.70317  eV     1   --> G_2            
     e( 64 - 64) =     10.70334  eV     1   --> G_2            
     e( 65 - 66) =     11.27634  eV     2   -->   2 G_2            
     e( 67 - 67) =     12.43888  eV     1   --> G_2            
     e( 68 - 68) =     12.44755  eV     1   --> G_2            
     e( 69 - 69) =     12.99004  eV     1   --> G_2            
     e( 70 - 70) =     13.02509  eV     1   --> G_2            
     e( 71 - 71) =     13.24809  eV     1   --> G_2            
     e( 72 - 72) =     13.29651  eV     1   --> G_2            
     e( 73 - 73) =     14.54831  eV     1   --> G_2            
     e( 74 - 74) =     14.55233  eV     1   --> G_2            
     e( 75 - 75) =     14.82133  eV     1   --> G_2            
     e( 76 - 76) =     14.82783  eV     1   --> G_2            
     e( 77 - 77) =     15.37328  eV     1   --> G_2            
     e( 78 - 78) =     15.37492  eV     1   --> G_2            
     e( 79 - 79) =     16.50368  eV     1   --> G_2            
     e( 80 - 80) =     16.50394  eV     1   --> G_2            

 **************************************************************************

 **************************************************************************

                    xk=(   0.03398,   0.05885,   0.00000  )

     Band symmetry, C_1 (1)     double point group:

     e(  1 -  2) =    -71.42309  eV     2   -->   2 G_2            
     e(  3 -  4) =    -45.66321  eV     2   -->   2 G_2            
     e(  5 -  6) =    -45.66299  eV     2   -->   2 G_2            
     e(  7 -  8) =    -45.62642  eV     2   -->   2 G_2            
     e(  9 - 10) =    -45.62601  eV     2   -->   2 G_2            
     e( 11 - 12) =    -44.77836  eV     2   -->   2 G_2            
     e( 13 - 14) =    -44.77685  eV     2   -->   2 G_2            
     e( 15 - 16) =    -44.74637  eV     2   -->   2 G_2            
     e( 17 - 18) =    -44.74546  eV     2   -->   2 G_2            
     e( 19 - 20) =    -44.72945  eV     2   -->   2 G_2            
     e( 21 - 22) =    -44.72896  eV     2   -->   2 G_2            
     e( 23 - 24) =    -42.81174  eV     2   -->   2 G_2            
     e( 25 - 26) =    -33.07183  eV     2   -->   2 G_2            
     e( 27 - 27) =    -32.97236  eV     1   --> G_2            
     e( 28 - 28) =    -32.97223  eV     1   --> G_2            
     e( 29 - 29) =    -12.20289  eV     1   --> G_2            
     e( 30 - 30) =    -12.20257  eV     1   --> G_2            
     e( 31 - 32) =    -10.99250  eV     2   -->   2 G_2            
     e( 33 - 33) =     -3.60606  eV     1   --> G_2            
     e( 34 - 34) =     -3.60583  eV     1   --> G_2            
     e( 35 - 35) =     -0.12047  eV     1   --> G_2            
     e( 36 - 36) =     -0.11456  eV     1   --> G_2            
     e( 37 - 37) =      0.03552  eV     1   --> G_2            
     e( 38 - 38) =      0.05317  eV     1   --> G_2            
     e( 39 - 39) =      0.28683  eV     1   --> G_2            
     e( 40 - 40) =      0.31444  eV     1   --> G_2            
     e( 41 - 41) =      0.97268  eV     1   --> G_2            
     e( 42 - 42) =      1.00119  eV     1   --> G_2            
     e( 43 - 43) =      1.33967  eV     1   --> G_2            
     e( 44 - 44) =      1.37724  eV     1   --> G_2            
     e( 45 - 45) =      2.17778  eV     1   --> G_2            
     e( 46 - 46) =      2.17891  eV     1   --> G_2            
     e( 47 - 47) =      5.11148  eV     1   --> G_2            
     e( 48 - 48) =      5.12777  eV     1   --> G_2            
     e( 49 - 49) =      5.25100  eV     1   --> G_2            
     e( 50 - 50) =      5.26785  eV     1   --> G_2            
     e( 51 - 51) =      5.38058  eV     1   --> G_2            
     e( 52 - 52) =      5.42852  eV     1   --> G_2            
     e( 53 - 53) =      5.58469  eV     1   --> G_2            
     e( 54 - 54) =      5.62504  eV     1   --> G_2            
     e( 55 - 55) =      6.81951  eV     1   --> G_2            
     e( 56 - 56) =      6.82114  eV     1   --> G_2            
     e( 57 - 58) =      7.53928  eV     2   -->   2 G_2            
     e( 59 - 60) =      7.81951  eV     2   -->   2 G_2            
     e( 61 - 61) =      9.27151  eV     1   --> G_2            
     e( 62 - 62) =      9.27199  eV     1   --> G_2            
     e( 63 - 63) =     10.80788  eV     1   --> G_2            
     e( 64 - 64) =     10.80845  eV     1   --> G_2            
     e( 65 - 65) =     11.29850  eV     1   --> G_2            
     e( 66 - 66) =     11.29862  eV     1   --> G_2            
     e( 67 - 67) =     12.33777  eV     1   --> G_2            
     e( 68 - 68) =     12.35301  eV     1   --> G_2            
     e( 69 - 69) =     13.03298  eV     1   --> G_2            
     e( 70 - 70) =     13.09496  eV     1   --> G_2            
     e( 71 - 71) =     13.27238  eV     1   --> G_2            
     e( 72 - 72) =     13.35815  eV     1   --> G_2            
     e( 73 - 73) =     14.53254  eV     1   --> G_2            
     e( 74 - 74) =     14.55858  eV     1   --> G_2            
     e( 75 - 75) =     14.65553  eV     1   --> G_2            
     e( 76 - 76) =     14.68656  eV     1   --> G_2            
     e( 77 - 77) =     15.37750  eV     1   --> G_2            
     e( 78 - 78) =     15.37918  eV     1   --> G_2            
     e( 79 - 80) =     16.53000  eV     2   -->   2 G_2            

 **************************************************************************

 **************************************************************************

                    xk=(   0.04078,   0.07063,   0.00000  )

     Band symmetry, C_1 (1)     double point group:

     e(  1 -  2) =    -71.42296  eV     2   -->   2 G_2            
     e(  3 -  4) =    -45.66319  eV     2   -->   2 G_2            
     e(  5 -  6) =    -45.66297  eV     2   -->   2 G_2            
     e(  7 -  8) =    -45.62641  eV     2   -->   2 G_2            
     e(  9 - 10) =    -45.62602  eV     2   -->   2 G_2            
     e( 11 - 12) =    -44.77832  eV     2   -->   2 G_2            
     e( 13 - 14) =    -44.77683  eV     2   -->   2 G_2            
     e( 15 - 16) =    -44.74640  eV     2   -->   2 G_2            
     e( 17 - 18) =    -44.74548  eV     2   -->   2 G_2            
     e( 19 - 20) =    -44.72948  eV     2   -->   2 G_2            
     e( 21 - 22) =    -44.72892  eV     2   -->   2 G_2            
     e( 23 - 24) =    -42.81228  eV     2   -->   2 G_2            
     e( 25 - 26) =    -33.07216  eV     2   -->   2 G_2            
     e( 27 - 27) =    -32.97491  eV     1   --> G_2            
     e( 28 - 28) =    -32.97468  eV     1   --> G_2            
     e( 29 - 29) =    -12.18100  eV     1   --> G_2            
     e( 30 - 30) =    -12.18045  eV     1   --> G_2            
     e( 31 - 32) =    -10.98144  eV     2   -->   2 G_2            
     e( 33 - 33) =     -3.57766  eV     1   --> G_2            
     e( 34 - 34) =     -3.57727  eV     1   --> G_2            
     e( 35 - 35) =     -0.17975  eV     1   --> G_2            
     e( 36 - 36) =     -0.17028  eV     1   --> G_2            
     e( 37 - 37) =      0.01322  eV     1   --> G_2            
     e( 38 - 38) =      0.04225  eV     1   --> G_2            
     e( 39 - 39) =      0.25533  eV     1   --> G_2            
     e( 40 - 40) =      0.30077  eV     1   --> G_2            
     e( 41 - 41) =      0.94760  eV     1   --> G_2            
     e( 42 - 42) =      0.99315  eV     1   --> G_2            
     e( 43 - 43) =      1.31572  eV     1   --> G_2            
     e( 44 - 44) =      1.37629  eV     1   --> G_2            
     e( 45 - 45) =      2.16769  eV     1   --> G_2            
     e( 46 - 46) =      2.16933  eV     1   --> G_2            
     e( 47 - 47) =      5.07291  eV     1   --> G_2            
     e( 48 - 48) =      5.07516  eV     1   --> G_2            
     e( 49 - 49) =      5.19377  eV     1   --> G_2            
     e( 50 - 50) =      5.20571  eV     1   --> G_2            
     e( 51 - 51) =      5.35562  eV     1   --> G_2            
     e( 52 - 52) =      5.42089  eV     1   --> G_2            
     e( 53 - 53) =      5.57029  eV     1   --> G_2            
     e( 54 - 54) =      5.63876  eV     1   --> G_2            
     e( 55 - 55) =      6.88212  eV     1   --> G_2            
     e( 56 - 56) =      6.88416  eV     1   --> G_2            
     e( 57 - 58) =      7.56967  eV     2   -->   2 G_2            
     e( 59 - 60) =      7.90155  eV     2   -->   2 G_2            
     e( 61 - 61) =      9.31240  eV     1   --> G_2            
     e( 62 - 62) =      9.31319  eV     1   --> G_2            
     e( 63 - 63) =     10.92770  eV     1   --> G_2            
     e( 64 - 64) =     10.92923  eV     1   --> G_2            
     e( 65 - 65) =     11.32643  eV     1   --> G_2            
     e( 66 - 66) =     11.32669  eV     1   --> G_2            
     e( 67 - 67) =     12.23337  eV     1   --> G_2            
     e( 68 - 68) =     12.25621  eV     1   --> G_2            
     e( 69 - 69) =     13.07407  eV     1   --> G_2            
     e( 70 - 70) =     13.17201  eV     1   --> G_2            
     e( 71 - 71) =     13.29655  eV     1   --> G_2            
     e( 72 - 72) =     13.43121  eV     1   --> G_2            
     e( 73 - 73) =     14.38096  eV     1   --> G_2            
     e( 74 - 74) =     14.40216  eV     1   --> G_2            
     e( 75 - 75) =     14.65246  eV     1   --> G_2            
     e( 76 - 76) =     14.68175  eV     1   --> G_2            
     e( 77 - 77) =     15.37963  eV     1   --> G_2            
     e( 78 - 78) =     15.38113  eV     1   --> G_2            
     e( 79 - 79) =     16.54295  eV     1   --> G_2            
     e( 80 - 80) =     16.54384  eV     1   --> G_2            

 **************************************************************************

 **************************************************************************

                    xk=(   0.04757,   0.08240,   0.00000  )

     Band symmetry, C_1 (1)     double point group:

     e(  1 -  2) =    -71.42280  eV     2   -->   2 G_2            
     e(  3 -  4) =    -45.66317  eV     2   -->   2 G_2            
     e(  5 -  6) =    -45.66296  eV     2   -->   2 G_2            
     e(  7 -  8) =    -45.62640  eV     2   -->   2 G_2            
     e(  9 - 10) =    -45.62602  eV     2   -->   2 G_2            
     e( 11 - 12) =    -44.77827  eV     2   -->   2 G_2            
     e( 13 - 14) =    -44.77680  eV     2   -->   2 G_2            
     e( 15 - 16) =    -44.74645  eV     2   -->   2 G_2            
     e( 17 - 18) =    -44.74551  eV     2   -->   2 G_2            
     e( 19 - 20) =    -44.72951  eV     2   -->   2 G_2            
     e( 21 - 22) =    -44.72887  eV     2   -->   2 G_2            
     e( 23 - 24) =    -42.81290  eV     2   -->   2 G_2            
     e( 25 - 25) =    -33.07258  eV     1   --> G_2            
     e( 26 - 26) =    -33.07246  eV     1   --> G_2            
     e( 27 - 27) =    -32.97787  eV     1   --> G_2            
     e( 28 - 28) =    -32.97752  eV     1   --> G_2            
     e( 29 - 29) =    -12.15530  eV     1   --> G_2            
     e( 30 - 30) =    -12.15442  eV     1   --> G_2            
     e( 31 - 31) =    -10.96845  eV     1   --> G_2            
     e( 32 - 32) =    -10.96833  eV     1   --> G_2            
     e( 33 - 33) =     -3.54438  eV     1   --> G_2            
     e( 34 - 34) =     -3.54375  eV     1   --> G_2            
     e( 35 - 35) =     -0.25043  eV     1   --> G_2            
     e( 36 - 36) =     -0.23668  eV     1   --> G_2            
     e( 37 - 37) =     -0.01965  eV     1   --> G_2            
     e( 38 - 38) =      0.01902  eV     1   --> G_2            
     e( 39 - 39) =      0.23472  eV     1   --> G_2            
     e( 40 - 40) =      0.29813  eV     1   --> G_2            
     e( 41 - 41) =      0.91163  eV     1   --> G_2            
     e( 42 - 42) =      0.97580  eV     1   --> G_2            
     e( 43 - 43) =      1.29133  eV     1   --> G_2            
     e( 44 - 44) =      1.37825  eV     1   --> G_2            
     e( 45 - 45) =      2.15508  eV     1   --> G_2            
     e( 46 - 46) =      2.15712  eV     1   --> G_2            
     e( 47 - 47) =      5.00434  eV     1   --> G_2            
     e( 48 - 48) =      5.02821  eV     1   --> G_2            
     e( 49 - 49) =      5.11370  eV     1   --> G_2            
     e( 50 - 50) =      5.16595  eV     1   --> G_2            
     e( 51 - 51) =      5.32529  eV     1   --> G_2            
     e( 52 - 52) =      5.41001  eV     1   --> G_2            
     e( 53 - 53) =      5.56865  eV     1   --> G_2            
     e( 54 - 54) =      5.66586  eV     1   --> G_2            
     e( 55 - 55) =      6.94591  eV     1   --> G_2            
     e( 56 - 56) =      6.94827  eV     1   --> G_2            
     e( 57 - 57) =      7.60504  eV     1   --> G_2            
     e( 58 - 58) =      7.60520  eV     1   --> G_2            
     e( 59 - 59) =      7.99540  eV     1   --> G_2            
     e( 60 - 60) =      7.99580  eV     1   --> G_2            
     e( 61 - 61) =      9.36141  eV     1   --> G_2            
     e( 62 - 62) =      9.36258  eV     1   --> G_2            
     e( 63 - 63) =     11.05684  eV     1   --> G_2            
     e( 64 - 64) =     11.06041  eV     1   --> G_2            
     e( 65 - 65) =     11.36175  eV     1   --> G_2            
     e( 66 - 66) =     11.36218  eV     1   --> G_2            
     e( 67 - 67) =     12.12884  eV     1   --> G_2            
     e( 68 - 68) =     12.15957  eV     1   --> G_2            
     e( 69 - 69) =     13.11255  eV     1   --> G_2            
     e( 70 - 70) =     13.25473  eV     1   --> G_2            
     e( 71 - 71) =     13.32030  eV     1   --> G_2            
     e( 72 - 72) =     13.51442  eV     1   --> G_2            
     e( 73 - 73) =     14.19247  eV     1   --> G_2            
     e( 74 - 74) =     14.21006  eV     1   --> G_2            
     e( 75 - 75) =     14.68744  eV     1   --> G_2            
     e( 76 - 76) =     14.71673  eV     1   --> G_2            
     e( 77 - 77) =     15.37722  eV     1   --> G_2            
     e( 78 - 78) =     15.37827  eV     1   --> G_2            
     e( 79 - 79) =     16.54370  eV     1   --> G_2            
     e( 80 - 80) =     16.54614  eV     1   --> G_2            

 **************************************************************************

 **************************************************************************

                    xk=(   0.05437,   0.09417,   0.00000  )

     Band symmetry, C_1 (1)     double point group:

     e(  1 -  2) =    -71.42263  eV     2   -->   2 G_2            
     e(  3 -  4) =    -45.66314  eV     2   -->   2 G_2            
     e(  5 -  6) =    -45.66294  eV     2   -->   2 G_2            
     e(  7 -  8) =    -45.62638  eV     2   -->   2 G_2            
     e(  9 - 10) =    -45.62603  eV     2   -->   2 G_2            
     e( 11 - 12) =    -44.77821  eV     2   -->   2 G_2            
     e( 13 - 14) =    -44.77677  eV     2   -->   2 G_2            
     e( 15 - 16) =    -44.74650  eV     2   -->   2 G_2            
     e( 17 - 18) =    -44.74554  eV     2   -->   2 G_2            
     e( 19 - 20) =    -44.72954  eV     2   -->   2 G_2            
     e( 21 - 22) =    -44.72882  eV     2   -->   2 G_2            
     e( 23 - 23) =    -42.81362  eV     1   --> G_2            
     e( 24 - 24) =    -42.81347  eV     1   --> G_2            
     e( 25 - 25) =    -33.07308  eV     1   --> G_2            
     e( 26 - 26) =    -33.07291  eV     1   --> G_2            
     e( 27 - 27) =    -32.98122  eV     1   --> G_2            
     e( 28 - 28) =    -32.98070  eV     1   --> G_2            
     e( 29 - 29) =    -12.12585  eV     1   --> G_2            
     e( 30 - 30) =    -12.12455  eV     1   --> G_2            
     e( 31 - 31) =    -10.95355  eV     1   --> G_2            
     e( 32 - 32) =    -10.95337  eV     1   --> G_2            
     e( 33 - 33) =     -3.50635  eV     1   --> G_2            
     e( 34 - 34) =     -3.50539  eV     1   --> G_2            
     e( 35 - 35) =     -0.33106  eV     1   --> G_2            
     e( 36 - 36) =     -0.31259  eV     1   --> G_2            
     e( 37 - 37) =     -0.06289  eV     1   --> G_2            
     e( 38 - 38) =     -0.02015  eV     1   --> G_2            
     e( 39 - 39) =      0.22922  eV     1   --> G_2            
     e( 40 - 40) =      0.30671  eV     1   --> G_2            
     e( 41 - 41) =      0.86451  eV     1   --> G_2            
     e( 42 - 42) =      0.94566  eV     1   --> G_2            
     e( 43 - 43) =      1.26936  eV     1   --> G_2            
     e( 44 - 44) =      1.38265  eV     1   --> G_2            
     e( 45 - 45) =      2.13973  eV     1   --> G_2            
     e( 46 - 46) =      2.14181  eV     1   --> G_2            
     e( 47 - 47) =      4.92536  eV     1   --> G_2            
     e( 48 - 48) =      4.97980  eV     1   --> G_2            
     e( 49 - 49) =      5.03182  eV     1   --> G_2            
     e( 50 - 50) =      5.12682  eV     1   --> G_2            
     e( 51 - 51) =      5.28901  eV     1   --> G_2            
     e( 52 - 52) =      5.39009  eV     1   --> G_2            
     e( 53 - 53) =      5.58467  eV     1   --> G_2            
     e( 54 - 54) =      5.70457  eV     1   --> G_2            
     e( 55 - 55) =      7.01015  eV     1   --> G_2            
     e( 56 - 56) =      7.01273  eV     1   --> G_2            
     e( 57 - 57) =      7.64526  eV     1   --> G_2            
     e( 58 - 58) =      7.64549  eV     1   --> G_2            
     e( 59 - 59) =      8.09896  eV     1   --> G_2            
     e( 60 - 60) =      8.09995  eV     1   --> G_2            
     e( 61 - 61) =      9.41890  eV     1   --> G_2            
     e( 62 - 62) =      9.42052  eV     1   --> G_2            
     e( 63 - 63) =     11.18558  eV     1   --> G_2            
     e( 64 - 64) =     11.19289  eV     1   --> G_2            
     e( 65 - 65) =     11.40914  eV     1   --> G_2            
     e( 66 - 66) =     11.40933  eV     1   --> G_2            
     e( 67 - 67) =     12.02780  eV     1   --> G_2            
     e( 68 - 68) =     12.06553  eV     1   --> G_2            
     e( 69 - 69) =     13.14799  eV     1   --> G_2            
     e( 70 - 70) =     13.33834  eV     1   --> G_2            
     e( 71 - 71) =     13.34569  eV     1   --> G_2            
     e( 72 - 72) =     13.60546  eV     1   --> G_2            
     e( 73 - 73) =     14.00485  eV     1   --> G_2            
     e( 74 - 74) =     14.02167  eV     1   --> G_2            
     e( 75 - 75) =     14.72354  eV     1   --> G_2            
     e( 76 - 76) =     14.75617  eV     1   --> G_2            
     e( 77 - 77) =     15.36710  eV     1   --> G_2            
     e( 78 - 78) =     15.36727  eV     1   --> G_2            
     e( 79 - 79) =     16.53262  eV     1   --> G_2            
     e( 80 - 80) =     16.53737  eV     1   --> G_2            

 **************************************************************************

 **************************************************************************

                    xk=(   0.06116,   0.10594,   0.00000  )

     Band symmetry, C_1 (1)     double point group:

     e(  1 -  2) =    -71.42243  eV     2   -->   2 G_2            
     e(  3 -  4) =    -45.66311  eV     2   -->   2 G_2            
     e(  5 -  6) =    -45.66292  eV     2   -->   2 G_2            
     e(  7 -  8) =    -45.62636  eV     2   -->   2 G_2            
     e(  9 - 10) =    -45.62603  eV     2   -->   2 G_2            
     e( 11 - 12) =    -44.77815  eV     2   -->   2 G_2            
     e( 13 - 14) =    -44.77674  eV     2   -->   2 G_2            
     e( 15 - 15) =    -44.74656  eV     1   --> G_2            
     e( 16 - 16) =    -44.74644  eV     1   --> G_2            
     e( 17 - 18) =    -44.74557  eV     2   -->   2 G_2            
     e( 19 - 20) =    -44.72957  eV     2   -->   2 G_2            
     e( 21 - 22) =    -44.72877  eV     2   -->   2 G_2            
     e( 23 - 23) =    -42.81442  eV     1   --> G_2            
     e( 24 - 24) =    -42.81421  eV     1   --> G_2            
     e( 25 - 25) =    -33.07370  eV     1   --> G_2            
     e( 26 - 26) =    -33.07345  eV     1   --> G_2            
     e( 27 - 27) =    -32.98492  eV     1   --> G_2            
     e( 28 - 28) =    -32.98419  eV     1   --> G_2            
     e( 29 - 29) =    -12.09276  eV     1   --> G_2            
     e( 30 - 30) =    -12.09090  eV     1   --> G_2            
     e( 31 - 31) =    -10.93680  eV     1   --> G_2            
     e( 32 - 32) =    -10.93655  eV     1   --> G_2            
     e( 33 - 33) =     -3.46372  eV     1   --> G_2            
     e( 34 - 34) =     -3.46235  eV     1   --> G_2            
     e( 35 - 35) =     -0.42028  eV     1   --> G_2            
     e( 36 - 36) =     -0.39706  eV     1   --> G_2            
     e( 37 - 37) =     -0.11424  eV     1   --> G_2            
     e( 38 - 38) =     -0.07250  eV     1   --> G_2            
     e( 39 - 39) =      0.23663  eV     1   --> G_2            
     e( 40 - 40) =      0.32460  eV     1   --> G_2            
     e( 41 - 41) =      0.80661  eV     1   --> G_2            
     e( 42 - 42) =      0.90034  eV     1   --> G_2            
     e( 43 - 43) =      1.25189  eV     1   --> G_2            
     e( 44 - 44) =      1.38866  eV     1   --> G_2            
     e( 45 - 45) =      2.12145  eV     1   --> G_2            
     e( 46 - 46) =      2.12296  eV     1   --> G_2            
     e( 47 - 47) =      4.84450  eV     1   --> G_2            
     e( 48 - 48) =      4.92562  eV     1   --> G_2            
     e( 49 - 49) =      4.95540  eV     1   --> G_2            
     e( 50 - 50) =      5.08727  eV     1   --> G_2            
     e( 51 - 51) =      5.24756  eV     1   --> G_2            
     e( 52 - 52) =      5.36085  eV     1   --> G_2            
     e( 53 - 53) =      5.61697  eV     1   --> G_2            
     e( 54 - 54) =      5.75252  eV     1   --> G_2            
     e( 55 - 55) =      7.07473  eV     1   --> G_2            
     e( 56 - 56) =      7.07747  eV     1   --> G_2            
     e( 57 - 57) =      7.69024  eV     1   --> G_2            
     e( 58 - 58) =      7.69055  eV     1   --> G_2            
     e( 59 - 59) =      8.20975  eV     1   --> G_2            
     e( 60 - 60) =      8.21167  eV     1   --> G_2            
     e( 61 - 61) =      9.48530  eV     1   --> G_2            
     e( 62 - 62) =      9.48738  eV     1   --> G_2            
     e( 63 - 63) =     11.29666  eV     1   --> G_2            
     e( 64 - 64) =     11.30851  eV     1   --> G_2            
     e( 65 - 65) =     11.47655  eV     1   --> G_2            
     e( 66 - 66) =     11.48094  eV     1   --> G_2            
     e( 67 - 67) =     11.93633  eV     1   --> G_2            
     e( 68 - 68) =     11.97729  eV     1   --> G_2            
     e( 69 - 69) =     13.18023  eV     1   --> G_2            
     e( 70 - 70) =     13.36440  eV     1   --> G_2            
     e( 71 - 71) =     13.42690  eV     1   --> G_2            
     e( 72 - 72) =     13.70064  eV     1   --> G_2            
     e( 73 - 73) =     13.82580  eV     1   --> G_2            
     e( 74 - 74) =     13.84231  eV     1   --> G_2            
     e( 75 - 75) =     14.75918  eV     1   --> G_2            
     e( 76 - 76) =     14.79627  eV     1   --> G_2            
     e( 77 - 77) =     15.34423  eV     1   --> G_2            
     e( 78 - 78) =     15.34561  eV     1   --> G_2            
     e( 79 - 79) =     16.51250  eV     1   --> G_2            
     e( 80 - 80) =     16.52015  eV     1   --> G_2            

 **************************************************************************

 **************************************************************************

                    xk=(   0.06796,   0.11771,   0.00000  )

     Band symmetry, C_1 (1)     double point group:

     e(  1 -  2) =    -71.42222  eV     2   -->   2 G_2            
     e(  3 -  4) =    -45.66307  eV     2   -->   2 G_2            
     e(  5 -  6) =    -45.66290  eV     2   -->   2 G_2            
     e(  7 -  8) =    -45.62635  eV     2   -->   2 G_2            
     e(  9 - 10) =    -45.62604  eV     2   -->   2 G_2            
     e( 11 - 12) =    -44.77809  eV     2   -->   2 G_2            
     e( 13 - 14) =    -44.77670  eV     2   -->   2 G_2            
     e( 15 - 15) =    -44.74664  eV     1   --> G_2            
     e( 16 - 16) =    -44.74647  eV     1   --> G_2            
     e( 17 - 18) =    -44.74560  eV     2   -->   2 G_2            
     e( 19 - 20) =    -44.72960  eV     2   -->   2 G_2            
     e( 21 - 22) =    -44.72872  eV     2   -->   2 G_2            
     e( 23 - 23) =    -42.81531  eV     1   --> G_2            
     e( 24 - 24) =    -42.81503  eV     1   --> G_2            
     e( 25 - 25) =    -33.07443  eV     1   --> G_2            
     e( 26 - 26) =    -33.07410  eV     1   --> G_2            
     e( 27 - 27) =    -32.98894  eV     1   --> G_2            
     e( 28 - 28) =    -32.98795  eV     1   --> G_2            
     e( 29 - 29) =    -12.05611  eV     1   --> G_2            
     e( 30 - 30) =    -12.05357  eV     1   --> G_2            
     e( 31 - 31) =    -10.91825  eV     1   --> G_2            
     e( 32 - 32) =    -10.91790  eV     1   --> G_2            
     e( 33 - 33) =     -3.41670  eV     1   --> G_2            
     e( 34 - 34) =     -3.41479  eV     1   --> G_2            
     e( 35 - 35) =     -0.51682  eV     1   --> G_2            
     e( 36 - 36) =     -0.48913  eV     1   --> G_2            
     e( 37 - 37) =     -0.17120  eV     1   --> G_2            
     e( 38 - 38) =     -0.13326  eV     1   --> G_2            
     e( 39 - 39) =      0.25256  eV     1   --> G_2            
     e( 40 - 40) =      0.34947  eV     1   --> G_2            
     e( 41 - 41) =      0.73862  eV     1   --> G_2            
     e( 42 - 42) =      0.83949  eV     1   --> G_2            
     e( 43 - 43) =      1.23929  eV     1   --> G_2            
     e( 44 - 44) =      1.39535  eV     1   --> G_2            
     e( 45 - 46) =      2.10008  eV     2   -->   2 G_2            
     e( 47 - 47) =      4.76525  eV     1   --> G_2            
     e( 48 - 48) =      4.85416  eV     1   --> G_2            
     e( 49 - 49) =      4.89983  eV     1   --> G_2            
     e( 50 - 50) =      5.04819  eV     1   --> G_2            
     e( 51 - 51) =      5.20216  eV     1   --> G_2            
     e( 52 - 52) =      5.32515  eV     1   --> G_2            
     e( 53 - 53) =      5.66130  eV     1   --> G_2            
     e( 54 - 54) =      5.80759  eV     1   --> G_2            
     e( 55 - 55) =      7.13990  eV     1   --> G_2            
     e( 56 - 56) =      7.14279  eV     1   --> G_2            
     e( 57 - 57) =      7.73988  eV     1   --> G_2            
     e( 58 - 58) =      7.74028  eV     1   --> G_2            
     e( 59 - 59) =      8.32517  eV     1   --> G_2            
     e( 60 - 60) =      8.32842  eV     1   --> G_2            
     e( 61 - 61) =      9.56097  eV     1   --> G_2            
     e( 62 - 62) =      9.56342  eV     1   --> G_2            
     e( 63 - 63) =     11.37560  eV     1   --> G_2            
     e( 64 - 64) =     11.38993  eV     1   --> G_2            
     e( 65 - 65) =     11.55774  eV     1   --> G_2            
     e( 66 - 66) =     11.58356  eV     1   --> G_2            
     e( 67 - 67) =     11.87127  eV     1   --> G_2            
     e( 68 - 68) =     11.90227  eV     1   --> G_2            
     e( 69 - 69) =     13.20913  eV     1   --> G_2            
     e( 70 - 70) =     13.38411  eV     1   --> G_2            
     e( 71 - 71) =     13.50262  eV     1   --> G_2            
     e( 72 - 72) =     13.66503  eV     1   --> G_2            
     e( 73 - 73) =     13.67342  eV     1   --> G_2            
     e( 74 - 74) =     13.79744  eV     1   --> G_2            
     e( 75 - 75) =     14.79594  eV     1   --> G_2            
     e( 76 - 76) =     14.83749  eV     1   --> G_2            
     e( 77 - 77) =     15.30540  eV     1   --> G_2            
     e( 78 - 78) =     15.30946  eV     1   --> G_2            
     e( 79 - 79) =     16.49019  eV     1   --> G_2            
     e( 80 - 80) =     16.50109  eV     1   --> G_2            

 **************************************************************************

 **************************************************************************

                    xk=(   0.07476,   0.12948,   0.00000  )

     Band symmetry, C_1 (1)     double point group:

     e(  1 -  2) =    -71.42199  eV     2   -->   2 G_2            
     e(  3 -  4) =    -45.66304  eV     2   -->   2 G_2            
     e(  5 -  6) =    -45.66288  eV     2   -->   2 G_2            
     e(  7 -  8) =    -45.62633  eV     2   -->   2 G_2            
     e(  9 - 10) =    -45.62605  eV     2   -->   2 G_2            
     e( 11 - 12) =    -44.77801  eV     2   -->   2 G_2            
     e( 13 - 14) =    -44.77666  eV     2   -->   2 G_2            
     e( 15 - 15) =    -44.74673  eV     1   --> G_2            
     e( 16 - 16) =    -44.74650  eV     1   --> G_2            
     e( 17 - 18) =    -44.74564  eV     2   -->   2 G_2            
     e( 19 - 19) =    -44.72963  eV     1   --> G_2            
     e( 20 - 20) =    -44.72952  eV     1   --> G_2            
     e( 21 - 22) =    -44.72866  eV     2   -->   2 G_2            
     e( 23 - 23) =    -42.81627  eV     1   --> G_2            
     e( 24 - 24) =    -42.81590  eV     1   --> G_2            
     e( 25 - 25) =    -33.07530  eV     1   --> G_2            
     e( 26 - 26) =    -33.07487  eV     1   --> G_2            
     e( 27 - 27) =    -32.99323  eV     1   --> G_2            
     e( 28 - 28) =    -32.99194  eV     1   --> G_2            
     e( 29 - 29) =    -12.01602  eV     1   --> G_2            
     e( 30 - 30) =    -12.01264  eV     1   --> G_2            
     e( 31 - 31) =    -10.89794  eV     1   --> G_2            
     e( 32 - 32) =    -10.89748  eV     1   --> G_2            
     e( 33 - 33) =     -3.36547  eV     1   --> G_2            
     e( 34 - 34) =     -3.36290  eV     1   --> G_2            
     e( 35 - 35) =     -0.61946  eV     1   --> G_2            
     e( 36 - 36) =     -0.58786  eV     1   --> G_2            
     e( 37 - 37) =     -0.23180  eV     1   --> G_2            
     e( 38 - 38) =     -0.19889  eV     1   --> G_2            
     e( 39 - 39) =      0.27360  eV     1   --> G_2            
     e( 40 - 40) =      0.37926  eV     1   --> G_2            
     e( 41 - 41) =      0.66136  eV     1   --> G_2            
     e( 42 - 42) =      0.76457  eV     1   --> G_2            
     e( 43 - 43) =      1.23049  eV     1   --> G_2            
     e( 44 - 44) =      1.40188  eV     1   --> G_2            
     e( 45 - 45) =      2.07277  eV     1   --> G_2            
     e( 46 - 46) =      2.07565  eV     1   --> G_2            
     e( 47 - 47) =      4.68978  eV     1   --> G_2            
     e( 48 - 48) =      4.77580  eV     1   --> G_2            
     e( 49 - 49) =      4.85761  eV     1   --> G_2            
     e( 50 - 50) =      5.01067  eV     1   --> G_2            
     e( 51 - 51) =      5.15416  eV     1   --> G_2            
     e( 52 - 52) =      5.28566  eV     1   --> G_2            
     e( 53 - 53) =      5.71413  eV     1   --> G_2            
     e( 54 - 54) =      5.86802  eV     1   --> G_2            
     e( 55 - 55) =      7.20609  eV     1   --> G_2            
     e( 56 - 56) =      7.20913  eV     1   --> G_2            
     e( 57 - 57) =      7.79413  eV     1   --> G_2            
     e( 58 - 58) =      7.79460  eV     1   --> G_2            
     e( 59 - 59) =      8.44272  eV     1   --> G_2            
     e( 60 - 60) =      8.44770  eV     1   --> G_2            
     e( 61 - 61) =      9.64606  eV     1   --> G_2            
     e( 62 - 62) =      9.64868  eV     1   --> G_2            
     e( 63 - 63) =     11.43004  eV     1   --> G_2            
     e( 64 - 64) =     11.44863  eV     1   --> G_2            
     e( 65 - 65) =     11.59437  eV     1   --> G_2            
     e( 66 - 66) =     11.66913  eV     1   --> G_2            
     e( 67 - 67) =     11.87227  eV     1   --> G_2            
     e( 68 - 68) =     11.87848  eV     1   --> G_2            
     e( 69 - 69) =     13.23446  eV     1   --> G_2            
     e( 70 - 70) =     13.40060  eV     1   --> G_2            
     e( 71 - 71) =     13.47572  eV     1   --> G_2            
     e( 72 - 72) =     13.52219  eV     1   --> G_2            
     e( 73 - 73) =     13.61568  eV     1   --> G_2            
     e( 74 - 74) =     13.88731  eV     1   --> G_2            
     e( 75 - 75) =     14.83659  eV     1   --> G_2            
     e( 76 - 76) =     14.88141  eV     1   --> G_2            
     e( 77 - 77) =     15.24861  eV     1   --> G_2            
     e( 78 - 78) =     15.25730  eV     1   --> G_2            
     e( 79 - 79) =     16.47400  eV     1   --> G_2            
     e( 80 - 80) =     16.48887  eV     1   --> G_2            

 **************************************************************************

 **************************************************************************

                    xk=(   0.08155,   0.14125,   0.00000  )

     Band symmetry, C_1 (1)     double point group:

     e(  1 -  2) =    -71.42174  eV     2   -->   2 G_2            
     e(  3 -  4) =    -45.66300  eV     2   -->   2 G_2            
     e(  5 -  6) =    -45.66285  eV     2   -->   2 G_2            
     e(  7 -  8) =    -45.62631  eV     2   -->   2 G_2            
     e(  9 - 10) =    -45.62606  eV     2   -->   2 G_2            
     e( 11 - 12) =    -44.77794  eV     2   -->   2 G_2            
     e( 13 - 14) =    -44.77661  eV     2   -->   2 G_2            
     e( 15 - 15) =    -44.74683  eV     1   --> G_2            
     e( 16 - 16) =    -44.74653  eV     1   --> G_2            
     e( 17 - 18) =    -44.74567  eV     2   -->   2 G_2            
     e( 19 - 19) =    -44.72966  eV     1   --> G_2            
     e( 20 - 20) =    -44.72952  eV     1   --> G_2            
     e( 21 - 22) =    -44.72861  eV     2   -->   2 G_2            
     e( 23 - 23) =    -42.81731  eV     1   --> G_2            
     e( 24 - 24) =    -42.81684  eV     1   --> G_2            
     e( 25 - 25) =    -33.07632  eV     1   --> G_2            
     e( 26 - 26) =    -33.07579  eV     1   --> G_2            
     e( 27 - 27) =    -32.99775  eV     1   --> G_2            
     e( 28 - 28) =    -32.99611  eV     1   --> G_2            
     e( 29 - 29) =    -11.97260  eV     1   --> G_2            
     e( 30 - 30) =    -11.96823  eV     1   --> G_2            
     e( 31 - 31) =    -10.87595  eV     1   --> G_2            
     e( 32 - 32) =    -10.87536  eV     1   --> G_2            
     e( 33 - 33) =     -3.31028  eV     1   --> G_2            
     e( 34 - 34) =     -3.30689  eV     1   --> G_2            
     e( 35 - 35) =     -0.72703  eV     1   --> G_2            
     e( 36 - 36) =     -0.69224  eV     1   --> G_2            
     e( 37 - 37) =     -0.29463  eV     1   --> G_2            
     e( 38 - 38) =     -0.26730  eV     1   --> G_2            
     e( 39 - 39) =      0.29748  eV     1   --> G_2            
     e( 40 - 40) =      0.41186  eV     1   --> G_2            
     e( 41 - 41) =      0.57581  eV     1   --> G_2            
     e( 42 - 42) =      0.67820  eV     1   --> G_2            
     e( 43 - 43) =      1.22393  eV     1   --> G_2            
     e( 44 - 44) =      1.40758  eV     1   --> G_2            
     e( 45 - 45) =      2.04073  eV     1   --> G_2            
     e( 46 - 46) =      2.04820  eV     1   --> G_2            
     e( 47 - 47) =      4.61955  eV     1   --> G_2            
     e( 48 - 48) =      4.69893  eV     1   --> G_2            
     e( 49 - 49) =      4.82226  eV     1   --> G_2            
     e( 50 - 50) =      4.97547  eV     1   --> G_2            
     e( 51 - 51) =      5.10505  eV     1   --> G_2            
     e( 52 - 52) =      5.24449  eV     1   --> G_2            
     e( 53 - 53) =      5.77306  eV     1   --> G_2            
     e( 54 - 54) =      5.93240  eV     1   --> G_2            
     e( 55 - 55) =      7.27376  eV     1   --> G_2            
     e( 56 - 56) =      7.27700  eV     1   --> G_2            
     e( 57 - 57) =      7.85290  eV     1   --> G_2            
     e( 58 - 58) =      7.85343  eV     1   --> G_2            
     e( 59 - 59) =      8.56016  eV     1   --> G_2            
     e( 60 - 60) =      8.56726  eV     1   --> G_2            
     e( 61 - 61) =      9.74031  eV     1   --> G_2            
     e( 62 - 62) =      9.74272  eV     1   --> G_2            
     e( 63 - 63) =     11.46256  eV     1   --> G_2            
     e( 64 - 64) =     11.49936  eV     1   --> G_2            
     e( 65 - 65) =     11.57005  eV     1   --> G_2            
     e( 66 - 66) =     11.66099  eV     1   --> G_2            
     e( 67 - 67) =     11.94288  eV     1   --> G_2            
     e( 68 - 68) =     11.96495  eV     1   --> G_2            
     e( 69 - 69) =     13.25586  eV     1   --> G_2            
     e( 70 - 70) =     13.35076  eV     1   --> G_2            
     e( 71 - 71) =     13.39173  eV     1   --> G_2            
     e( 72 - 72) =     13.41336  eV     1   --> G_2            
     e( 73 - 73) =     13.67411  eV     1   --> G_2            
     e( 74 - 74) =     13.96700  eV     1   --> G_2            
     e( 75 - 75) =     14.88291  eV     1   --> G_2            
     e( 76 - 76) =     14.92902  eV     1   --> G_2            
     e( 77 - 77) =     15.17465  eV     1   --> G_2            
     e( 78 - 78) =     15.19192  eV     1   --> G_2            
     e( 79 - 79) =     16.46655  eV     1   --> G_2            
     e( 80 - 80) =     16.48914  eV     1   --> G_2            

 **************************************************************************

 **************************************************************************

                    xk=(   0.08835,   0.15302,   0.00000  )

     Band symmetry, C_1 (1)     double point group:

     e(  1 -  2) =    -71.42147  eV     2   -->   2 G_2            
     e(  3 -  6) =    -45.66295  eV     4   -->   4 G_2            
     e(  7 -  8) =    -45.62628  eV     2   -->   2 G_2            
     e(  9 - 10) =    -45.62607  eV     2   -->   2 G_2            
     e( 11 - 12) =    -44.77786  eV     2   -->   2 G_2            
     e( 13 - 14) =    -44.77656  eV     2   -->   2 G_2            
     e( 15 - 15) =    -44.74694  eV     1   --> G_2            
     e( 16 - 16) =    -44.74656  eV     1   --> G_2            
     e( 17 - 18) =    -44.74571  eV     2   -->   2 G_2            
     e( 19 - 19) =    -44.72969  eV     1   --> G_2            
     e( 20 - 20) =    -44.72951  eV     1   --> G_2            
     e( 21 - 22) =    -44.72856  eV     2   -->   2 G_2            
     e( 23 - 23) =    -42.81843  eV     1   --> G_2            
     e( 24 - 24) =    -42.81783  eV     1   --> G_2            
     e( 25 - 25) =    -33.07753  eV     1   --> G_2            
     e( 26 - 26) =    -33.07689  eV     1   --> G_2            
     e( 27 - 27) =    -33.00244  eV     1   --> G_2            
     e( 28 - 28) =    -33.00041  eV     1   --> G_2            
     e( 29 - 29) =    -11.92600  eV     1   --> G_2            
     e( 30 - 30) =    -11.92045  eV     1   --> G_2            
     e( 31 - 31) =    -10.85234  eV     1   --> G_2            
     e( 32 - 32) =    -10.85159  eV     1   --> G_2            
     e( 33 - 33) =     -3.25141  eV     1   --> G_2            
     e( 34 - 34) =     -3.24700  eV     1   --> G_2            
     e( 35 - 35) =     -0.83843  eV     1   --> G_2            
     e( 36 - 36) =     -0.80127  eV     1   --> G_2            
     e( 37 - 37) =     -0.35870  eV     1   --> G_2            
     e( 38 - 38) =     -0.33729  eV     1   --> G_2            
     e( 39 - 39) =      0.32239  eV     1   --> G_2            
     e( 40 - 40) =      0.44288  eV     1   --> G_2            
     e( 41 - 41) =      0.48308  eV     1   --> G_2            
     e( 42 - 42) =      0.58561  eV     1   --> G_2            
     e( 43 - 43) =      1.21819  eV     1   --> G_2            
     e( 44 - 44) =      1.41192  eV     1   --> G_2            
     e( 45 - 45) =      2.00384  eV     1   --> G_2            
     e( 46 - 46) =      2.01802  eV     1   --> G_2            
     e( 47 - 47) =      4.55553  eV     1   --> G_2            
     e( 48 - 48) =      4.62518  eV     1   --> G_2            
     e( 49 - 49) =      4.79320  eV     1   --> G_2            
     e( 50 - 50) =      4.94288  eV     1   --> G_2            
     e( 51 - 51) =      5.05647  eV     1   --> G_2            
     e( 52 - 52) =      5.20358  eV     1   --> G_2            
     e( 53 - 53) =      5.83635  eV     1   --> G_2            
     e( 54 - 54) =      5.99952  eV     1   --> G_2            
     e( 55 - 55) =      7.34334  eV     1   --> G_2            
     e( 56 - 56) =      7.34682  eV     1   --> G_2            
     e( 57 - 57) =      7.91613  eV     1   --> G_2            
     e( 58 - 58) =      7.91667  eV     1   --> G_2            
     e( 59 - 59) =      8.67568  eV     1   --> G_2            
     e( 60 - 60) =      8.68524  eV     1   --> G_2            
     e( 61 - 61) =      9.84274  eV     1   --> G_2            
     e( 62 - 62) =      9.84433  eV     1   --> G_2            
     e( 63 - 63) =     11.44181  eV     1   --> G_2            
     e( 64 - 64) =     11.54707  eV     1   --> G_2            
     e( 65 - 65) =     11.56985  eV     1   --> G_2            
     e( 66 - 66) =     11.60912  eV     1   --> G_2            
     e( 67 - 67) =     12.05052  eV     1   --> G_2            
     e( 68 - 68) =     12.06791  eV     1   --> G_2            
     e( 69 - 69) =     13.24452  eV     1   --> G_2            
     e( 70 - 70) =     13.27213  eV     1   --> G_2            
     e( 71 - 71) =     13.29046  eV     1   --> G_2            
     e( 72 - 72) =     13.41961  eV     1   --> G_2            
     e( 73 - 73) =     13.72989  eV     1   --> G_2            
     e( 74 - 74) =     14.03204  eV     1   --> G_2            
     e( 75 - 75) =     14.92880  eV     1   --> G_2            
     e( 76 - 76) =     14.97853  eV     1   --> G_2            
     e( 77 - 77) =     15.08770  eV     1   --> G_2            
     e( 78 - 78) =     15.12540  eV     1   --> G_2            
     e( 79 - 79) =     16.44581  eV     1   --> G_2            
     e( 80 - 80) =     16.49617  eV     1   --> G_2            

 **************************************************************************

 **************************************************************************

                    xk=(   0.09514,   0.16479,   0.00000  )

     Band symmetry, C_1 (1)     double point group:

     e(  1 -  2) =    -71.42120  eV     2   -->   2 G_2            
     e(  3 -  6) =    -45.66291  eV     4   -->   4 G_2            
     e(  7 -  8) =    -45.62626  eV     2   -->   2 G_2            
     e(  9 - 10) =    -45.62608  eV     2   -->   2 G_2            
     e( 11 - 12) =    -44.77777  eV     2   -->   2 G_2            
     e( 13 - 14) =    -44.77651  eV     2   -->   2 G_2            
     e( 15 - 15) =    -44.74707  eV     1   --> G_2            
     e( 16 - 16) =    -44.74659  eV     1   --> G_2            
     e( 17 - 18) =    -44.74574  eV     2   -->   2 G_2            
     e( 19 - 19) =    -44.72972  eV     1   --> G_2            
     e( 20 - 20) =    -44.72951  eV     1   --> G_2            
     e( 21 - 22) =    -44.72851  eV     2   -->   2 G_2            
     e( 23 - 23) =    -42.81960  eV     1   --> G_2            
     e( 24 - 24) =    -42.81887  eV     1   --> G_2            
     e( 25 - 25) =    -33.07893  eV     1   --> G_2            
     e( 26 - 26) =    -33.07818  eV     1   --> G_2            
     e( 27 - 27) =    -33.00724  eV     1   --> G_2            
     e( 28 - 28) =    -33.00478  eV     1   --> G_2            
     e( 29 - 29) =    -11.87635  eV     1   --> G_2            
     e( 30 - 30) =    -11.86943  eV     1   --> G_2            
     e( 31 - 31) =    -10.82718  eV     1   --> G_2            
     e( 32 - 32) =    -10.82625  eV     1   --> G_2            
     e( 33 - 33) =     -3.18914  eV     1   --> G_2            
     e( 34 - 34) =     -3.18351  eV     1   --> G_2            
     e( 35 - 35) =     -0.95261  eV     1   --> G_2            
     e( 36 - 36) =     -0.91397  eV     1   --> G_2            
     e( 37 - 37) =     -0.42332  eV     1   --> G_2            
     e( 38 - 38) =     -0.40817  eV     1   --> G_2            
     e( 39 - 39) =      0.34511  eV     1   --> G_2            
     e( 40 - 40) =      0.38606  eV     1   --> G_2            
     e( 41 - 41) =      0.43714  eV     1   --> G_2            
     e( 42 - 42) =      0.52267  eV     1   --> G_2            
     e( 43 - 43) =      1.21217  eV     1   --> G_2            
     e( 44 - 44) =      1.41445  eV     1   --> G_2            
     e( 45 - 45) =      1.96222  eV     1   --> G_2            
     e( 46 - 46) =      1.98564  eV     1   --> G_2            
     e( 47 - 47) =      4.49824  eV     1   --> G_2            
     e( 48 - 48) =      4.55491  eV     1   --> G_2            
     e( 49 - 49) =      4.77032  eV     1   --> G_2            
     e( 50 - 50) =      4.91277  eV     1   --> G_2            
     e( 51 - 51) =      5.01032  eV     1   --> G_2            
     e( 52 - 52) =      5.16493  eV     1   --> G_2            
     e( 53 - 53) =      5.90267  eV     1   --> G_2            
     e( 54 - 54) =      6.06833  eV     1   --> G_2            
     e( 55 - 55) =      7.41519  eV     1   --> G_2            
     e( 56 - 56) =      7.41899  eV     1   --> G_2            
     e( 57 - 57) =      7.98372  eV     1   --> G_2            
     e( 58 - 58) =      7.98422  eV     1   --> G_2            
     e( 59 - 59) =      8.78802  eV     1   --> G_2            
     e( 60 - 60) =      8.80033  eV     1   --> G_2            
     e( 61 - 62) =      9.95123  eV     2   -->   2 G_2            
     e( 63 - 63) =     11.38318  eV     1   --> G_2            
     e( 64 - 64) =     11.55395  eV     1   --> G_2            
     e( 65 - 65) =     11.59417  eV     1   --> G_2            
     e( 66 - 66) =     11.60349  eV     1   --> G_2            
     e( 67 - 67) =     12.14128  eV     1   --> G_2            
     e( 68 - 68) =     12.15156  eV     1   --> G_2            
     e( 69 - 69) =     13.17325  eV     1   --> G_2            
     e( 70 - 70) =     13.22352  eV     1   --> G_2            
     e( 71 - 71) =     13.28699  eV     1   --> G_2            
     e( 72 - 72) =     13.41896  eV     1   --> G_2            
     e( 73 - 73) =     13.77468  eV     1   --> G_2            
     e( 74 - 74) =     14.08071  eV     1   --> G_2            
     e( 75 - 75) =     14.93474  eV     1   --> G_2            
     e( 76 - 76) =     14.98700  eV     1   --> G_2            
     e( 77 - 77) =     15.02991  eV     1   --> G_2            
     e( 78 - 78) =     15.10096  eV     1   --> G_2            
     e( 79 - 79) =     16.34102  eV     1   --> G_2            
     e( 80 - 80) =     16.45101  eV     1   --> G_2            

 **************************************************************************

 **************************************************************************

                    xk=(   0.10194,   0.17656,   0.00000  )

     Band symmetry, C_1 (1)     double point group:

     e(  1 -  2) =    -71.42090  eV     2   -->   2 G_2            
     e(  3 -  5) =    -45.66286  eV     3   -->   3 G_2            
     e(  6 -  6) =    -45.66268  eV     1   --> G_2            
     e(  7 - 10) =    -45.62624  eV     4   -->   4 G_2            
     e( 11 - 12) =    -44.77769  eV     2   -->   2 G_2            
     e( 13 - 14) =    -44.77646  eV     2   -->   2 G_2            
     e( 15 - 15) =    -44.74721  eV     1   --> G_2            
     e( 16 - 16) =    -44.74662  eV     1   --> G_2            
     e( 17 - 18) =    -44.74577  eV     2   -->   2 G_2            
     e( 19 - 19) =    -44.72975  eV     1   --> G_2            
     e( 20 - 20) =    -44.72950  eV     1   --> G_2            
     e( 21 - 22) =    -44.72845  eV     2   -->   2 G_2            
     e( 23 - 23) =    -42.82084  eV     1   --> G_2            
     e( 24 - 24) =    -42.81995  eV     1   --> G_2            
     e( 25 - 25) =    -33.08055  eV     1   --> G_2            
     e( 26 - 26) =    -33.07971  eV     1   --> G_2            
     e( 27 - 27) =    -33.01208  eV     1   --> G_2            
     e( 28 - 28) =    -33.00917  eV     1   --> G_2            
     e( 29 - 29) =    -11.82382  eV     1   --> G_2            
     e( 30 - 30) =    -11.81532  eV     1   --> G_2            
     e( 31 - 31) =    -10.80056  eV     1   --> G_2            
     e( 32 - 32) =    -10.79941  eV     1   --> G_2            
     e( 33 - 33) =     -3.12383  eV     1   --> G_2            
     e( 34 - 34) =     -3.11671  eV     1   --> G_2            
     e( 35 - 35) =     -1.06859  eV     1   --> G_2            
     e( 36 - 36) =     -1.02936  eV     1   --> G_2            
     e( 37 - 37) =     -0.48802  eV     1   --> G_2            
     e( 38 - 38) =     -0.47963  eV     1   --> G_2            
     e( 39 - 39) =      0.27755  eV     1   --> G_2            
     e( 40 - 40) =      0.34277  eV     1   --> G_2            
     e( 41 - 41) =      0.37269  eV     1   --> G_2            
     e( 42 - 42) =      0.54179  eV     1   --> G_2            
     e( 43 - 43) =      1.20501  eV     1   --> G_2            
     e( 44 - 44) =      1.41481  eV     1   --> G_2            
     e( 45 - 45) =      1.91631  eV     1   --> G_2            
     e( 46 - 46) =      1.95182  eV     1   --> G_2            
     e( 47 - 47) =      4.44780  eV     1   --> G_2            
     e( 48 - 48) =      4.48800  eV     1   --> G_2            
     e( 49 - 49) =      4.75329  eV     1   --> G_2            
     e( 50 - 50) =      4.88474  eV     1   --> G_2            
     e( 51 - 51) =      4.96873  eV     1   --> G_2            
     e( 52 - 52) =      5.13062  eV     1   --> G_2            
     e( 53 - 53) =      5.97091  eV     1   --> G_2            
     e( 54 - 54) =      6.13790  eV     1   --> G_2            
     e( 55 - 55) =      7.48962  eV     1   --> G_2            
     e( 56 - 56) =      7.49381  eV     1   --> G_2            
     e( 57 - 57) =      8.05555  eV     1   --> G_2            
     e( 58 - 58) =      8.05595  eV     1   --> G_2            
     e( 59 - 59) =      8.89645  eV     1   --> G_2            
     e( 60 - 60) =      8.91179  eV     1   --> G_2            
     e( 61 - 61) =     10.05985  eV     1   --> G_2            
     e( 62 - 62) =     10.06199  eV     1   --> G_2            
     e( 63 - 63) =     11.32313  eV     1   --> G_2            
     e( 64 - 64) =     11.50867  eV     1   --> G_2            
     e( 65 - 65) =     11.63713  eV     1   --> G_2            
     e( 66 - 66) =     11.64248  eV     1   --> G_2            
     e( 67 - 67) =     12.19557  eV     1   --> G_2            
     e( 68 - 68) =     12.20005  eV     1   --> G_2            
     e( 69 - 69) =     13.14674  eV     1   --> G_2            
     e( 70 - 70) =     13.20051  eV     1   --> G_2            
     e( 71 - 71) =     13.29793  eV     1   --> G_2            
     e( 72 - 72) =     13.41092  eV     1   --> G_2            
     e( 73 - 73) =     13.80767  eV     1   --> G_2            
     e( 74 - 74) =     14.11409  eV     1   --> G_2            
     e( 75 - 75) =     14.87312  eV     1   --> G_2            
     e( 76 - 76) =     14.89239  eV     1   --> G_2            
     e( 77 - 77) =     15.05490  eV     1   --> G_2            
     e( 78 - 78) =     15.14323  eV     1   --> G_2            
     e( 79 - 79) =     16.19334  eV     1   --> G_2            
     e( 80 - 80) =     16.28037  eV     1   --> G_2            

 **************************************************************************

 **************************************************************************

                    xk=(   0.10873,   0.18833,   0.00000  )

     Band symmetry, C_1 (1)     double point group:

     e(  1 -  2) =    -71.42060  eV     2   -->   2 G_2            
     e(  3 -  5) =    -45.66282  eV     3   -->   3 G_2            
     e(  6 -  6) =    -45.66263  eV     1   --> G_2            
     e(  7 -  9) =    -45.62622  eV     3   -->   3 G_2            
     e( 10 - 10) =    -45.62599  eV     1   --> G_2            
     e( 11 - 12) =    -44.77760  eV     2   -->   2 G_2            
     e( 13 - 14) =    -44.77641  eV     2   -->   2 G_2            
     e( 15 - 15) =    -44.74736  eV     1   --> G_2            
     e( 16 - 16) =    -44.74664  eV     1   --> G_2            
     e( 17 - 17) =    -44.74580  eV     1   --> G_2            
     e( 18 - 18) =    -44.74569  eV     1   --> G_2            
     e( 19 - 19) =    -44.72978  eV     1   --> G_2            
     e( 20 - 20) =    -44.72948  eV     1   --> G_2            
     e( 21 - 22) =    -44.72841  eV     2   -->   2 G_2            
     e( 23 - 23) =    -42.82213  eV     1   --> G_2            
     e( 24 - 24) =    -42.82107  eV     1   --> G_2            
     e( 25 - 25) =    -33.08241  eV     1   --> G_2            
     e( 26 - 26) =    -33.08151  eV     1   --> G_2            
     e( 27 - 27) =    -33.01690  eV     1   --> G_2            
     e( 28 - 28) =    -33.01353  eV     1   --> G_2            
     e( 29 - 29) =    -11.76856  eV     1   --> G_2            
     e( 30 - 30) =    -11.75828  eV     1   --> G_2            
     e( 31 - 31) =    -10.77256  eV     1   --> G_2            
     e( 32 - 32) =    -10.77118  eV     1   --> G_2            
     e( 33 - 33) =     -3.05586  eV     1   --> G_2            
     e( 34 - 34) =     -3.04694  eV     1   --> G_2            
     e( 35 - 35) =     -1.18542  eV     1   --> G_2            
     e( 36 - 36) =     -1.14653  eV     1   --> G_2            
     e( 37 - 37) =     -0.55250  eV     1   --> G_2            
     e( 38 - 38) =     -0.55160  eV     1   --> G_2            
     e( 39 - 39) =      0.17025  eV     1   --> G_2            
     e( 40 - 40) =      0.22690  eV     1   --> G_2            
     e( 41 - 41) =      0.39234  eV     1   --> G_2            
     e( 42 - 42) =      0.57616  eV     1   --> G_2            
     e( 43 - 43) =      1.19609  eV     1   --> G_2            
     e( 44 - 44) =      1.41258  eV     1   --> G_2            
     e( 45 - 45) =      1.86692  eV     1   --> G_2            
     e( 46 - 46) =      1.91769  eV     1   --> G_2            
     e( 47 - 47) =      4.40395  eV     1   --> G_2            
     e( 48 - 48) =      4.42407  eV     1   --> G_2            
     e( 49 - 49) =      4.74148  eV     1   --> G_2            
     e( 50 - 50) =      4.85844  eV     1   --> G_2            
     e( 51 - 51) =      4.93396  eV     1   --> G_2            
     e( 52 - 52) =      5.10256  eV     1   --> G_2            
     e( 53 - 53) =      6.04010  eV     1   --> G_2            
     e( 54 - 54) =      6.20735  eV     1   --> G_2            
     e( 55 - 55) =      7.56685  eV     1   --> G_2            
     e( 56 - 56) =      7.57154  eV     1   --> G_2            
     e( 57 - 57) =      8.13150  eV     1   --> G_2            
     e( 58 - 58) =      8.13170  eV     1   --> G_2            
     e( 59 - 59) =      9.00070  eV     1   --> G_2            
     e( 60 - 60) =      9.01936  eV     1   --> G_2            
     e( 61 - 61) =     10.16472  eV     1   --> G_2            
     e( 62 - 62) =     10.16884  eV     1   --> G_2            
     e( 63 - 63) =     11.27423  eV     1   --> G_2            
     e( 64 - 64) =     11.47704  eV     1   --> G_2            
     e( 65 - 65) =     11.67588  eV     1   --> G_2            
     e( 66 - 66) =     11.67878  eV     1   --> G_2            
     e( 67 - 67) =     12.20955  eV     1   --> G_2            
     e( 68 - 68) =     12.21185  eV     1   --> G_2            
     e( 69 - 69) =     13.16385  eV     1   --> G_2            
     e( 70 - 70) =     13.21155  eV     1   --> G_2            
     e( 71 - 71) =     13.31330  eV     1   --> G_2            
     e( 72 - 72) =     13.39713  eV     1   --> G_2            
     e( 73 - 73) =     13.82880  eV     1   --> G_2            
     e( 74 - 74) =     14.13479  eV     1   --> G_2            
     e( 75 - 75) =     14.79244  eV     1   --> G_2            
     e( 76 - 76) =     14.79928  eV     1   --> G_2            
     e( 77 - 77) =     15.04135  eV     1   --> G_2            
     e( 78 - 78) =     15.18814  eV     1   --> G_2            
     e( 79 - 79) =     16.08453  eV     1   --> G_2            
     e( 80 - 80) =     16.09459  eV     1   --> G_2            

 **************************************************************************

 **************************************************************************

                    xk=(   0.11553,   0.20010,   0.00000  )

[...]
     e( 17 - 18) =    -44.74541  eV     2   --> G_3            
     e( 17 - 18) =    -44.74541  eV     2   --> G_4            
     e( 19 - 20) =    -44.72939  eV     2   --> G_3            
     e( 19 - 20) =    -44.72939  eV     2   --> G_4            
     e( 21 - 22) =    -44.72906  eV     2   --> G_3            
     e( 21 - 22) =    -44.72906  eV     2   --> G_4            
     e( 23 - 24) =    -42.81085  eV     2   --> G_3            
     e( 23 - 24) =    -42.81085  eV     2   --> G_4            
     e( 25 - 26) =    -33.07132  eV     2   --> G_3            
     e( 25 - 26) =    -33.07132  eV     2   --> G_4            
     e( 27 - 28) =    -32.96804  eV     2   --> G_3            
     e( 27 - 28) =    -32.96804  eV     2   --> G_4            
     e( 29 - 30) =    -12.23945  eV     2   --> G_3            
     e( 29 - 30) =    -12.23945  eV     2   --> G_4            
     e( 31 - 32) =    -11.01097  eV     2   --> G_3            
     e( 31 - 32) =    -11.01097  eV     2   --> G_4            
     e( 33 - 34) =     -3.65360  eV     2   --> G_3            
     e( 33 - 34) =     -3.65360  eV     2   --> G_4            
     e( 35 - 36) =     -0.03289  eV     2   --> G_3            
     e( 35 - 36) =     -0.03289  eV     2   --> G_4            
     e( 37 - 38) =      0.06721  eV     2   --> G_3            
     e( 37 - 38) =      0.06721  eV     2   --> G_4            
     e( 39 - 40) =      0.36635  eV     2   --> G_3            
     e( 39 - 40) =      0.36635  eV     2   --> G_4            
     e( 41 - 42) =      0.99934  eV     2   --> G_3            
     e( 41 - 42) =      0.99934  eV     2   --> G_4            
     e( 43 - 44) =      1.38567  eV     2   --> G_3            
     e( 43 - 44) =      1.38567  eV     2   --> G_4            
     e( 45 - 46) =      2.19321  eV     2   --> G_3            
     e( 45 - 46) =      2.19321  eV     2   --> G_4            
     e( 47 - 48) =      5.16844  eV     2   --> G_3            
     e( 47 - 48) =      5.16844  eV     2   --> G_4            
     e( 49 - 50) =      5.37750  eV     2   --> G_3            
     e( 49 - 50) =      5.37750  eV     2   --> G_4            
     e( 51 - 52) =      5.45056  eV     2   --> G_3            
     e( 51 - 52) =      5.45056  eV     2   --> G_4            
     e( 53 - 54) =      5.63789  eV     2   --> G_3            
     e( 53 - 54) =      5.63789  eV     2   --> G_4            
     e( 55 - 56) =      6.68709  eV     2   --> G_3            
     e( 55 - 56) =      6.68709  eV     2   --> G_4            
     e( 57 - 58) =      7.48767  eV     2   --> G_3            
     e( 57 - 58) =      7.48767  eV     2   --> G_4            
     e( 59 - 60) =      7.67994  eV     2   --> G_3            
     e( 59 - 60) =      7.67994  eV     2   --> G_4            
     e( 61 - 62) =      9.20477  eV     2   --> G_3            
     e( 61 - 62) =      9.20477  eV     2   --> G_4            
     e( 63 - 64) =     10.58956  eV     2   --> G_3            
     e( 63 - 64) =     10.58956  eV     2   --> G_4            
     e( 65 - 66) =     11.25398  eV     2   --> G_3            
     e( 65 - 66) =     11.25398  eV     2   --> G_4            
     e( 67 - 68) =     12.56947  eV     2   --> G_3            
     e( 67 - 68) =     12.56947  eV     2   --> G_4            
     e( 69 - 70) =     12.93447  eV     2   --> G_3            
     e( 69 - 70) =     12.93447  eV     2   --> G_4            
     e( 71 - 72) =     13.22311  eV     2   --> G_3            
     e( 71 - 72) =     13.22311  eV     2   --> G_4            
     e( 73 - 74) =     14.50712  eV     2   --> G_3            
     e( 73 - 74) =     14.50712  eV     2   --> G_4            
     e( 75 - 76) =     15.08109  eV     2   --> G_3            
     e( 75 - 76) =     15.08109  eV     2   --> G_4            
     e( 77 - 78) =     15.36849  eV     2   --> G_3            
     e( 77 - 78) =     15.36849  eV     2   --> G_4            
     e( 79 - 80) =     16.43975  eV     2   --> G_3            
     e( 79 - 80) =     16.43975  eV     2   --> G_4            

 **************************************************************************

 **************************************************************************

                    xk=(   0.02041,   0.01178,   0.00000  )

     Band symmetry, C_s (m)     double point group:

     e(  1 -  2) =    -71.42335  eV     2   --> G_3            
     e(  1 -  2) =    -71.42335  eV     2   --> G_4            
     e(  3 -  4) =    -45.66326  eV     2   --> G_3            
     e(  3 -  4) =    -45.66326  eV     2   --> G_4            
     e(  5 -  6) =    -45.66302  eV     2   --> G_3            
     e(  5 -  6) =    -45.66302  eV     2   --> G_4            
     e(  7 -  8) =    -45.62645  eV     2   --> G_3            
     e(  7 -  8) =    -45.62645  eV     2   --> G_4            
     e(  9 - 10) =    -45.62601  eV     2   --> G_3            
     e(  9 - 10) =    -45.62601  eV     2   --> G_4            
     e( 11 - 12) =    -44.77844  eV     2   --> G_3            
     e( 11 - 12) =    -44.77844  eV     2   --> G_4            
     e( 13 - 14) =    -44.77691  eV     2   --> G_3            
     e( 13 - 14) =    -44.77691  eV     2   --> G_4            
     e( 15 - 16) =    -44.74630  eV     2   --> G_3            
     e( 15 - 16) =    -44.74630  eV     2   --> G_4            
     e( 17 - 18) =    -44.74541  eV     2   --> G_3            
     e( 17 - 18) =    -44.74541  eV     2   --> G_4            
     e( 19 - 20) =    -44.72937  eV     2   --> G_3            
     e( 19 - 20) =    -44.72937  eV     2   --> G_4            
     e( 21 - 22) =    -44.72908  eV     2   --> G_3            
     e( 21 - 22) =    -44.72908  eV     2   --> G_4            
     e( 23 - 24) =    -42.81067  eV     2   --> G_3            
     e( 23 - 24) =    -42.81067  eV     2   --> G_4            
     e( 25 - 26) =    -33.07123  eV     2   --> G_3            
     e( 25 - 26) =    -33.07123  eV     2   --> G_4            
     e( 27 - 28) =    -32.96715  eV     2   --> G_3            
     e( 27 - 28) =    -32.96715  eV     2   --> G_4            
     e( 29 - 30) =    -12.24705  eV     2   --> G_3            
     e( 29 - 30) =    -12.24705  eV     2   --> G_4            
     e( 31 - 32) =    -11.01480  eV     2   --> G_3            
     e( 31 - 32) =    -11.01480  eV     2   --> G_4            
     e( 33 - 34) =     -3.66349  eV     2   --> G_3            
     e( 33 - 34) =     -3.66349  eV     2   --> G_4            
     e( 35 - 36) =     -0.02062  eV     2   --> G_3            
     e( 35 - 36) =     -0.02062  eV     2   --> G_4            
     e( 37 - 38) =      0.07520  eV     2   --> G_3            
     e( 37 - 38) =      0.07520  eV     2   --> G_4            
     e( 39 - 40) =      0.38426  eV     2   --> G_3            
     e( 39 - 40) =      0.38426  eV     2   --> G_4            
     e( 41 - 42) =      0.99901  eV     2   --> G_3            
     e( 41 - 42) =      0.99901  eV     2   --> G_4            
     e( 43 - 44) =      1.39239  eV     2   --> G_3            
     e( 43 - 44) =      1.39239  eV     2   --> G_4            
     e( 45 - 46) =      2.19605  eV     2   --> G_3            
     e( 45 - 46) =      2.19605  eV     2   --> G_4            
     e( 47 - 48) =      5.17308  eV     2   --> G_3            
     e( 47 - 48) =      5.17308  eV     2   --> G_4            
     e( 49 - 50) =      5.40108  eV     2   --> G_3            
     e( 49 - 50) =      5.40108  eV     2   --> G_4            
     e( 51 - 52) =      5.46766  eV     2   --> G_3            
     e( 51 - 52) =      5.46766  eV     2   --> G_4            
     e( 53 - 54) =      5.65263  eV     2   --> G_3            
     e( 53 - 54) =      5.65263  eV     2   --> G_4            
     e( 55 - 56) =      6.65255  eV     2   --> G_3            
     e( 55 - 56) =      6.65255  eV     2   --> G_4            
     e( 57 - 58) =      7.47679  eV     2   --> G_3            
     e( 57 - 58) =      7.47679  eV     2   --> G_4            
     e( 59 - 60) =      7.65090  eV     2   --> G_3            
     e( 59 - 60) =      7.65090  eV     2   --> G_4            
     e( 61 - 62) =      9.19112  eV     2   --> G_3            
     e( 61 - 62) =      9.19112  eV     2   --> G_4            
     e( 63 - 64) =     10.54154  eV     2   --> G_3            
     e( 63 - 64) =     10.54154  eV     2   --> G_4            
     e( 65 - 66) =     11.24495  eV     2   --> G_3            
     e( 65 - 66) =     11.24495  eV     2   --> G_4            
     e( 67 - 68) =     12.63780  eV     2   --> G_3            
     e( 67 - 68) =     12.63780  eV     2   --> G_4            
     e( 69 - 70) =     12.89234  eV     2   --> G_3            
     e( 69 - 70) =     12.89234  eV     2   --> G_4            
     e( 71 - 72) =     13.20055  eV     2   --> G_3            
     e( 71 - 72) =     13.20055  eV     2   --> G_4            
     e( 73 - 74) =     14.48465  eV     2   --> G_3            
     e( 73 - 74) =     14.48465  eV     2   --> G_4            
     e( 75 - 76) =     15.21998  eV     2   --> G_3            
     e( 75 - 76) =     15.21998  eV     2   --> G_4            
     e( 77 - 78) =     15.36553  eV     2   --> G_3            
     e( 77 - 78) =     15.36553  eV     2   --> G_4            
     e( 79 - 80) =     16.38507  eV     2   --> G_3            
     e( 79 - 80) =     16.38507  eV     2   --> G_4            

 **************************************************************************

 **************************************************************************

                    xk=(   0.01020,   0.00589,   0.00000  )

     Band symmetry, C_s (m)     double point group:

     e(  1 -  2) =    -71.42338  eV     2   --> G_3            
     e(  1 -  2) =    -71.42338  eV     2   --> G_4            
     e(  3 -  4) =    -45.66326  eV     2   --> G_3            
     e(  3 -  4) =    -45.66326  eV     2   --> G_4            
     e(  5 -  6) =    -45.66302  eV     2   --> G_3            
     e(  5 -  6) =    -45.66302  eV     2   --> G_4            
     e(  7 -  8) =    -45.62645  eV     2   --> G_3            
     e(  7 -  8) =    -45.62645  eV     2   --> G_4            
     e(  9 - 10) =    -45.62601  eV     2   --> G_3            
     e(  9 - 10) =    -45.62601  eV     2   --> G_4            
     e( 11 - 12) =    -44.77845  eV     2   --> G_3            
     e( 11 - 12) =    -44.77845  eV     2   --> G_4            
     e( 13 - 14) =    -44.77691  eV     2   --> G_3            
     e( 13 - 14) =    -44.77691  eV     2   --> G_4            
     e( 15 - 16) =    -44.74630  eV     2   --> G_3            
     e( 15 - 16) =    -44.74630  eV     2   --> G_4            
     e( 17 - 18) =    -44.74540  eV     2   --> G_3            
     e( 17 - 18) =    -44.74540  eV     2   --> G_4            
     e( 19 - 20) =    -44.72935  eV     2   --> G_3            
     e( 19 - 20) =    -44.72935  eV     2   --> G_4            
     e( 21 - 22) =    -44.72909  eV     2   --> G_3            
     e( 21 - 22) =    -44.72909  eV     2   --> G_4            
     e( 23 - 24) =    -42.81056  eV     2   --> G_3            
     e( 23 - 24) =    -42.81056  eV     2   --> G_4            
     e( 25 - 26) =    -33.07117  eV     2   --> G_3            
     e( 25 - 26) =    -33.07117  eV     2   --> G_4            
     e( 27 - 28) =    -32.96661  eV     2   --> G_3            
     e( 27 - 28) =    -32.96661  eV     2   --> G_4            
     e( 29 - 30) =    -12.25162  eV     2   --> G_3            
     e( 29 - 30) =    -12.25162  eV     2   --> G_4            
     e( 31 - 32) =    -11.01710  eV     2   --> G_3            
     e( 31 - 32) =    -11.01710  eV     2   --> G_4            
     e( 33 - 34) =     -3.66943  eV     2   --> G_3            
     e( 33 - 34) =     -3.66943  eV     2   --> G_4            
     e( 35 - 36) =     -0.01477  eV     2   --> G_3            
     e( 35 - 36) =     -0.01477  eV     2   --> G_4            
     e( 37 - 38) =      0.08127  eV     2   --> G_3            
     e( 37 - 38) =      0.08127  eV     2   --> G_4            
     e( 39 - 40) =      0.39572  eV     2   --> G_3            
     e( 39 - 40) =      0.39572  eV     2   --> G_4            
     e( 41 - 42) =      0.99829  eV     2   --> G_3            
     e( 41 - 42) =      0.99829  eV     2   --> G_4            
     e( 43 - 44) =      1.39660  eV     2   --> G_3            
     e( 43 - 44) =      1.39660  eV     2   --> G_4            
     e( 45 - 46) =      2.19771  eV     2   --> G_3            
     e( 45 - 46) =      2.19771  eV     2   --> G_4            
     e( 47 - 48) =      5.17492  eV     2   --> G_3            
     e( 47 - 48) =      5.17492  eV     2   --> G_4            
     e( 49 - 50) =      5.41387  eV     2   --> G_3            
     e( 49 - 50) =      5.41387  eV     2   --> G_4            
     e( 51 - 52) =      5.48024  eV     2   --> G_3            
     e( 51 - 52) =      5.48024  eV     2   --> G_4            
     e( 53 - 54) =      5.66358  eV     2   --> G_3            
     e( 53 - 54) =      5.66358  eV     2   --> G_4            
     e( 55 - 56) =      6.63011  eV     2   --> G_3            
     e( 55 - 56) =      6.63011  eV     2   --> G_4            
     e( 57 - 58) =      7.47022  eV     2   --> G_3            
     e( 57 - 58) =      7.47022  eV     2   --> G_4            
     e( 59 - 60) =      7.63347  eV     2   --> G_3            
     e( 59 - 60) =      7.63347  eV     2   --> G_4            
     e( 61 - 62) =      9.18295  eV     2   --> G_3            
     e( 61 - 62) =      9.18295  eV     2   --> G_4            
     e( 63 - 64) =     10.51221  eV     2   --> G_3            
     e( 63 - 64) =     10.51221  eV     2   --> G_4            
     e( 65 - 66) =     11.23954  eV     2   --> G_3            
     e( 65 - 66) =     11.23954  eV     2   --> G_4            
     e( 67 - 68) =     12.69250  eV     2   --> G_3            
     e( 67 - 68) =     12.69250  eV     2   --> G_4            
     e( 69 - 70) =     12.85514  eV     2   --> G_3            
     e( 69 - 70) =     12.85514  eV     2   --> G_4            
     e( 71 - 72) =     13.18593  eV     2   --> G_3            
     e( 71 - 72) =     13.18593  eV     2   --> G_4            
     e( 73 - 74) =     14.46998  eV     2   --> G_3            
     e( 73 - 74) =     14.46998  eV     2   --> G_4            
     e( 75 - 76) =     15.31751  eV     2   --> G_3            
     e( 75 - 76) =     15.31751  eV     2   --> G_4            
     e( 77 - 78) =     15.36720  eV     2   --> G_3            
     e( 77 - 78) =     15.36720  eV     2   --> G_4            
     e( 79 - 80) =     16.33327  eV     2   --> G_3            
     e( 79 - 80) =     16.33327  eV     2   --> G_4            

 **************************************************************************

 **************************************************************************

                    xk=(   0.00000,   0.00000,   0.00000  )

     double point group C_3v (3m)  
     there are  6 classes and  3 irreducible representations
     the character table:

       E     -E    2C3   -2C3  3s_v  -3s_v
                                          
G_4    2.00 -2.00  1.00 -1.00  0.00  0.00
G_5    1.00 -1.00 -1.00  1.00  0.00  0.00
G_6    1.00 -1.00 -1.00  1.00  0.00  0.00

     imaginary part

       E     -E    2C3   -2C3  3s_v  -3s_v
                                          
G_4    0.00  0.00  0.00  0.00  0.00  0.00
G_5    0.00  0.00  0.00  0.00  1.00 -1.00
G_6    0.00  0.00  0.00  0.00 -1.00  1.00

     the symmetry operations in each class and the name of the first element:

     E             1
                                                                 
     -E           -1
                                                                 
     2C3           2    3
                                                                 
     -2C3         -2   -3
                                                                 
     3s_v          5    6   -4
                                                                 
     -3s_v         4   -5   -6
                                                                 

     Band symmetry, C_3v (3m)   double point group:

     e(  1 -  2) =    -71.42339  eV     2   --> G_4   L_6      
     e(  3 -  4) =    -45.66326  eV     2   --> G_5   L_4      
     e(  3 -  4) =    -45.66326  eV     2   --> G_6   L_5      
     e(  5 -  6) =    -45.66302  eV     2   --> G_5   L_4      
     e(  5 -  6) =    -45.66302  eV     2   --> G_6   L_5      
     e(  7 -  8) =    -45.62645  eV     2   --> G_4   L_6      
     e(  9 - 10) =    -45.62601  eV     2   --> G_4   L_6      
     e( 11 - 12) =    -44.77846  eV     2   --> G_4   L_6      
     e( 13 - 14) =    -44.77691  eV     2   --> G_4   L_6      
     e( 15 - 16) =    -44.74630  eV     2   --> G_5   L_4      
     e( 15 - 16) =    -44.74630  eV     2   --> G_6   L_5      
     e( 17 - 18) =    -44.74540  eV     2   --> G_5   L_4      
     e( 17 - 18) =    -44.74540  eV     2   --> G_6   L_5      
     e( 19 - 20) =    -44.72935  eV     2   --> G_4   L_6      
     e( 21 - 22) =    -44.72910  eV     2   --> G_4   L_6      
     e( 23 - 24) =    -42.81052  eV     2   --> G_4   L_6      
     e( 25 - 26) =    -33.07115  eV     2   --> G_4   L_6      
     e( 27 - 28) =    -32.96644  eV     2   --> G_5   L_4      
     e( 27 - 28) =    -32.96644  eV     2   --> G_6   L_5      
     e( 29 - 30) =    -12.25314  eV     2   --> G_4   L_6      
     e( 31 - 32) =    -11.01786  eV     2   --> G_4   L_6      
     e( 33 - 34) =     -3.67141  eV     2   --> G_4   L_6      
     e( 35 - 36) =     -0.01308  eV     2   --> G_5   L_4      
     e( 35 - 36) =     -0.01308  eV     2   --> G_6   L_5      
     e( 37 - 38) =      0.08353  eV     2   --> G_4   L_6      
     e( 39 - 40) =      0.39966  eV     2   --> G_4   L_6      
     e( 41 - 42) =      0.99795  eV     2   --> G_4   L_6      
     e( 43 - 44) =      1.39803  eV     2   --> G_5   L_4      
     e( 43 - 44) =      1.39803  eV     2   --> G_6   L_5      
     e( 45 - 46) =      2.19826  eV     2   --> G_4   L_6      
     e( 47 - 48) =      5.17537  eV     2   --> G_4   L_6      
     e( 49 - 50) =      5.41790  eV     2   --> G_5   L_4      
     e( 49 - 50) =      5.41790  eV     2   --> G_6   L_5      
     e( 51 - 52) =      5.48480  eV     2   --> G_4   L_6      
     e( 53 - 54) =      5.66765  eV     2   --> G_5   L_4      
     e( 53 - 54) =      5.66765  eV     2   --> G_6   L_5      
     e( 55 - 56) =      6.62231  eV     2   --> G_4   L_6      
     e( 57 - 58) =      7.46803  eV     2   --> G_4   L_6      
     e( 59 - 60) =      7.62766  eV     2   --> G_4   L_6      
     e( 61 - 62) =      9.18023  eV     2   --> G_4   L_6      
     e( 63 - 64) =     10.50235  eV     2   --> G_4   L_6      
     e( 65 - 66) =     11.23774  eV     2   --> G_4   L_6      
     e( 67 - 68) =     12.71740  eV     2   --> G_4   L_6      
     e( 69 - 70) =     12.83641  eV     2   --> G_4   L_6      
     e( 71 - 72) =     13.18083  eV     2   --> G_5   L_4      
     e( 71 - 72) =     13.18083  eV     2   --> G_6   L_5      
     e( 73 - 74) =     14.46488  eV     2   --> G_4   L_6      
     e( 75 - 76) =     15.34534  eV     2   --> G_4   L_6      
     e( 77 - 78) =     15.37692  eV     2   --> G_5   L_4      
     e( 77 - 78) =     15.37692  eV     2   --> G_6   L_5      
     e( 79 - 80) =     16.31090  eV     2   --> G_4   L_6      

 **************************************************************************
 
     BANDS        :   1m28.23s CPU   1m36.92s WALL

 
   This run was terminated on:  20:26:51   6Jul2023            

=------------------------------------------------------------------------------=
   JOB DONE.
=------------------------------------------------------------------------------=
