
     Program PWSCF v.7.0 starts on  3May2023 at 11: 1: 1 

     This program is part of the open-source Quantum ESPRESSO suite
     for quantum simulation of materials; please cite
         "P. Giannozzi et al., J. Phys.:Condens. Matter 21 395502 (2009);
         "P. Giannozzi et al., J. Phys.:Condens. Matter 29 465901 (2017);
         "P. Giannozzi et al., J. Chem. Phys. 152 154105 (2020);
          URL http://www.quantum-espresso.org", 
     in publications or presentations arising from this work. More details at
     http://www.quantum-espresso.org/quote

     Parallel version (MPI), running on   144 processors

     MPI processes distributed on     2 nodes
     K-points division:     npool     =       2
     R & G space division:  proc/nbgrp/npool/nimage =      72
     188690 MiB available memory on the printing compute node when the environment starts
 
     Waiting for input...
     Reading input from standard input

     Current dimensions of program PWSCF are:
     Max number of different atomic species (ntypx) = 10
     Max number of k-points (npk) =  40000
     Max angular momentum in pseudopotentials (lmaxx) =  4

     Atomic positions and unit cell read from directory:
     ./WSe2.save/
     Atomic positions from file used, from input discarded
 
     Message from routine setup:
     using ibrav=0 with symmetry is DISCOURAGED, use correct ibrav instead

     Subspace diagonalization in iterative solution of the eigenvalue problem:
     one sub-group per band group will be used
     scalapack distributed-memory algorithm (size of sub-group:  8*  8 procs)

 
     Parallelization info
     --------------------
     sticks:   dense  smooth     PW     G-vecs:    dense   smooth      PW
     Min          14      14      4                 1826     1826     274
     Max          15      15      5                 1869     1869     297
     Sum        1069    1069    313               133409   133409   20415
 
     Using Slab Decomposition
 


     bravais-lattice index     =            0
     lattice parameter (alat)  =       6.2720  a.u.
     unit-cell volume          =     988.7666 (a.u.)^3
     number of atoms/cell      =            3
     number of atomic types    =            2
     number of electrons       =        46.00
     number of Kohn-Sham states=           50
     kinetic-energy cutoff     =     100.0000  Ry
     charge density cutoff     =     400.0000  Ry
     Exchange-correlation= PBE
                           (   1   4   3   4   0   0   0)

     celldm(1)=   6.272014  celldm(2)=   0.000000  celldm(3)=   0.000000
     celldm(4)=   0.000000  celldm(5)=   0.000000  celldm(6)=   0.000000

     crystal axes: (cart. coord. in units of alat)
               a(1) = (   1.000000   0.000000   0.000000 )  
               a(2) = (  -0.500000   0.866025   0.000000 )  
               a(3) = (   0.000000   0.000000   4.627455 )  

     reciprocal axes: (cart. coord. in units 2 pi/alat)
               b(1) = (  1.000000  0.577350  0.000000 )  
               b(2) = (  0.000000  1.154701  0.000000 )  
               b(3) = (  0.000000  0.000000  0.216102 )  


     PseudoPot. # 1 for Se read from file:
     /u/danielhg/pseudo/Se-nc-sr-pbe-dojo.UPF
     MD5 check sum: 3cc46b3642295b3f4fdae63b742ce36d
     Pseudo is Norm-conserving + core correction, Zval = 16.0
     Generated using ONCVPSP code by D. R. Hamann
     Using radial grid of 1214 points,  6 beta functions with: 
                l(1) =   0
                l(2) =   0
                l(3) =   1
                l(4) =   1
                l(5) =   2
                l(6) =   2

     PseudoPot. # 2 for W  read from file:
     /u/danielhg/pseudo/W-nc-sr-pbe-dojo.UPF
     MD5 check sum: cb94e439a9e4ea809831d6e90c63864e
     Pseudo is Norm-conserving + core correction, Zval = 14.0
     Generated using ONCVPSP code by D. R. Hamann
     Using radial grid of 1396 points,  8 beta functions with: 
                l(1) =   0
                l(2) =   0
                l(3) =   1
                l(4) =   1
                l(5) =   2
                l(6) =   2
                l(7) =   3
                l(8) =   3

     atomic species   valence    mass     pseudopotential
        Se            16.00    78.97000     Se( 1.00)
        W             14.00   183.84000     W ( 1.00)

      6 Sym. Ops. (no inversion) found


                                    s                        frac. trans.

      isym =  1     identity                                     

 cryst.   s( 1) = (     1          0          0      )
                  (     0          1          0      )
                  (     0          0          1      )

 cart.    s( 1) = (  1.0000000  0.0000000  0.0000000 )
                  (  0.0000000  1.0000000  0.0000000 )
                  (  0.0000000  0.0000000  1.0000000 )


      isym =  2     120 deg rotation - cryst. axis [0,0,1]       

 cryst.   s( 2) = (     0          1          0      )
                  (    -1         -1          0      )
                  (     0          0          1      )

 cart.    s( 2) = ( -0.5000000 -0.8660254  0.0000000 )
                  (  0.8660254 -0.5000000  0.0000000 )
                  (  0.0000000  0.0000000  1.0000000 )


      isym =  3     120 deg rotation - cryst. axis [0,0,-1]      

 cryst.   s( 3) = (    -1         -1          0      )
                  (     1          0          0      )
                  (     0          0          1      )

 cart.    s( 3) = ( -0.5000000  0.8660254  0.0000000 )
                  ( -0.8660254 -0.5000000  0.0000000 )
                  (  0.0000000  0.0000000  1.0000000 )


      isym =  4     inv. 180 deg rotation - cart. axis [1,0,0]   

 cryst.   s( 4) = (    -1          0          0      )
                  (     1          1          0      )
                  (     0          0          1      )

 cart.    s( 4) = ( -1.0000000  0.0000000  0.0000000 )
                  (  0.0000000  1.0000000  0.0000000 )
                  (  0.0000000  0.0000000  1.0000000 )


      isym =  5     inv. 180 deg rotation - cryst. axis [0,1,0]  

 cryst.   s( 5) = (     1          1          0      )
                  (     0         -1          0      )
                  (     0          0          1      )

 cart.    s( 5) = (  0.5000000  0.8660254  0.0000000 )
                  (  0.8660254 -0.5000000  0.0000000 )
                  (  0.0000000  0.0000000  1.0000000 )


      isym =  6     inv. 180 deg rotation - cryst. axis [1,1,0]  

 cryst.   s( 6) = (     0         -1          0      )
                  (    -1          0          0      )
                  (     0          0          1      )

 cart.    s( 6) = (  0.5000000 -0.8660254  0.0000000 )
                  ( -0.8660254 -0.5000000  0.0000000 )
                  (  0.0000000  0.0000000  1.0000000 )


   Cartesian axes

     site n.     atom                  positions (alat units)
         1           W   tau(   1) = (   0.0000000   0.0000000   2.7656698  )
         2           Se  tau(   2) = (   0.5000000   0.2886751   3.2716273  )
         3           Se  tau(   3) = (   0.5000000   0.2886751   2.2597123  )

   Crystallographic axes

     site n.     atom                  positions (cryst. coord.)
         1           W   tau(   1) = (  0.0000000  0.0000000  0.5976655  )
         2           Se  tau(   2) = (  0.6666667  0.3333333  0.7070036  )
         3           Se  tau(   3) = (  0.6666667  0.3333333  0.4883273  )

     number of k points=   128
                       cart. coord. in units 2pi/alat
        k(    1) = (   0.0000000   0.0000000   0.0000000), wk =   0.0156250
        k(    2) = (   0.0067959   0.0117709   0.0000000), wk =   0.0156250
        k(    3) = (   0.0135918   0.0235418   0.0000000), wk =   0.0156250
        k(    4) = (   0.0203878   0.0353126   0.0000000), wk =   0.0156250
        k(    5) = (   0.0271837   0.0470835   0.0000000), wk =   0.0156250
        k(    6) = (   0.0339796   0.0588544   0.0000000), wk =   0.0156250
        k(    7) = (   0.0407755   0.0706253   0.0000000), wk =   0.0156250
        k(    8) = (   0.0475714   0.0823961   0.0000000), wk =   0.0156250
        k(    9) = (   0.0543673   0.0941670   0.0000000), wk =   0.0156250
        k(   10) = (   0.0611633   0.1059379   0.0000000), wk =   0.0156250
        k(   11) = (   0.0679592   0.1177088   0.0000000), wk =   0.0156250
        k(   12) = (   0.0747551   0.1294796   0.0000000), wk =   0.0156250
        k(   13) = (   0.0815510   0.1412505   0.0000000), wk =   0.0156250
        k(   14) = (   0.0883469   0.1530214   0.0000000), wk =   0.0156250
        k(   15) = (   0.0951429   0.1647923   0.0000000), wk =   0.0156250
        k(   16) = (   0.1019388   0.1765631   0.0000000), wk =   0.0156250
        k(   17) = (   0.1087347   0.1883340   0.0000000), wk =   0.0156250
        k(   18) = (   0.1155306   0.2001049   0.0000000), wk =   0.0156250
        k(   19) = (   0.1223265   0.2118758   0.0000000), wk =   0.0156250
        k(   20) = (   0.1291224   0.2236466   0.0000000), wk =   0.0156250
        k(   21) = (   0.1359184   0.2354175   0.0000000), wk =   0.0156250
        k(   22) = (   0.1427143   0.2471884   0.0000000), wk =   0.0156250
        k(   23) = (   0.1495102   0.2589593   0.0000000), wk =   0.0156250
        k(   24) = (   0.1563061   0.2707301   0.0000000), wk =   0.0156250
        k(   25) = (   0.1631020   0.2825010   0.0000000), wk =   0.0156250
        k(   26) = (   0.1698980   0.2942719   0.0000000), wk =   0.0156250
        k(   27) = (   0.1766939   0.3060428   0.0000000), wk =   0.0156250
        k(   28) = (   0.1834898   0.3178136   0.0000000), wk =   0.0156250
        k(   29) = (   0.1902857   0.3295845   0.0000000), wk =   0.0156250
        k(   30) = (   0.1970816   0.3413554   0.0000000), wk =   0.0156250
        k(   31) = (   0.2038776   0.3531263   0.0000000), wk =   0.0156250
        k(   32) = (   0.2106735   0.3648972   0.0000000), wk =   0.0156250
        k(   33) = (   0.2174694   0.3766680   0.0000000), wk =   0.0156250
        k(   34) = (   0.2242653   0.3884389   0.0000000), wk =   0.0156250
        k(   35) = (   0.2310612   0.4002098   0.0000000), wk =   0.0156250
        k(   36) = (   0.2378571   0.4119807   0.0000000), wk =   0.0156250
        k(   37) = (   0.2446531   0.4237515   0.0000000), wk =   0.0156250
        k(   38) = (   0.2514490   0.4355224   0.0000000), wk =   0.0156250
        k(   39) = (   0.2582449   0.4472933   0.0000000), wk =   0.0156250
        k(   40) = (   0.2650408   0.4590642   0.0000000), wk =   0.0156250
        k(   41) = (   0.2718367   0.4708350   0.0000000), wk =   0.0156250
        k(   42) = (   0.2786327   0.4826059   0.0000000), wk =   0.0156250
        k(   43) = (   0.2854286   0.4943768   0.0000000), wk =   0.0156250
        k(   44) = (   0.2922245   0.5061477   0.0000000), wk =   0.0156250
        k(   45) = (   0.2990204   0.5179185   0.0000000), wk =   0.0156250
        k(   46) = (   0.3058163   0.5296894   0.0000000), wk =   0.0156250
        k(   47) = (   0.3126122   0.5414603   0.0000000), wk =   0.0156250
        k(   48) = (   0.3194082   0.5532312   0.0000000), wk =   0.0156250
        k(   49) = (   0.3262041   0.5650020   0.0000000), wk =   0.0156250
        k(   50) = (   0.3330000   0.5767729   0.0000000), wk =   0.0156250
        k(   51) = (   0.3387586   0.5668385   0.0000000), wk =   0.0156250
        k(   52) = (   0.3445172   0.5569041   0.0000000), wk =   0.0156250
        k(   53) = (   0.3502759   0.5469697   0.0000000), wk =   0.0156250
        k(   54) = (   0.3560345   0.5370353   0.0000000), wk =   0.0156250
        k(   55) = (   0.3617931   0.5271009   0.0000000), wk =   0.0156250
        k(   56) = (   0.3675517   0.5171665   0.0000000), wk =   0.0156250
        k(   57) = (   0.3733103   0.5072321   0.0000000), wk =   0.0156250
        k(   58) = (   0.3790690   0.4972977   0.0000000), wk =   0.0156250
        k(   59) = (   0.3848276   0.4873633   0.0000000), wk =   0.0156250
        k(   60) = (   0.3905862   0.4774289   0.0000000), wk =   0.0156250
        k(   61) = (   0.3963448   0.4674944   0.0000000), wk =   0.0156250
        k(   62) = (   0.4021034   0.4575600   0.0000000), wk =   0.0156250
        k(   63) = (   0.4078621   0.4476256   0.0000000), wk =   0.0156250
        k(   64) = (   0.4136207   0.4376912   0.0000000), wk =   0.0156250
        k(   65) = (   0.4193793   0.4277568   0.0000000), wk =   0.0156250
        k(   66) = (   0.4251379   0.4178224   0.0000000), wk =   0.0156250
        k(   67) = (   0.4308966   0.4078880   0.0000000), wk =   0.0156250
        k(   68) = (   0.4366552   0.3979536   0.0000000), wk =   0.0156250
        k(   69) = (   0.4424138   0.3880192   0.0000000), wk =   0.0156250
        k(   70) = (   0.4481724   0.3780848   0.0000000), wk =   0.0156250
        k(   71) = (   0.4539310   0.3681504   0.0000000), wk =   0.0156250
        k(   72) = (   0.4596897   0.3582160   0.0000000), wk =   0.0156250
        k(   73) = (   0.4654483   0.3482816   0.0000000), wk =   0.0156250
        k(   74) = (   0.4712069   0.3383472   0.0000000), wk =   0.0156250
        k(   75) = (   0.4769655   0.3284128   0.0000000), wk =   0.0156250
        k(   76) = (   0.4827241   0.3184784   0.0000000), wk =   0.0156250
        k(   77) = (   0.4884828   0.3085439   0.0000000), wk =   0.0156250
        k(   78) = (   0.4942414   0.2986095   0.0000000), wk =   0.0156250
        k(   79) = (   0.5000000   0.2886751   0.0000000), wk =   0.0156250
        k(   80) = (   0.4897959   0.2827838   0.0000000), wk =   0.0156250
        k(   81) = (   0.4795918   0.2768925   0.0000000), wk =   0.0156250
        k(   82) = (   0.4693878   0.2710011   0.0000000), wk =   0.0156250
        k(   83) = (   0.4591837   0.2651098   0.0000000), wk =   0.0156250
        k(   84) = (   0.4489796   0.2592185   0.0000000), wk =   0.0156250
        k(   85) = (   0.4387755   0.2533272   0.0000000), wk =   0.0156250
        k(   86) = (   0.4285714   0.2474358   0.0000000), wk =   0.0156250
        k(   87) = (   0.4183673   0.2415445   0.0000000), wk =   0.0156250
        k(   88) = (   0.4081633   0.2356532   0.0000000), wk =   0.0156250
        k(   89) = (   0.3979592   0.2297618   0.0000000), wk =   0.0156250
        k(   90) = (   0.3877551   0.2238705   0.0000000), wk =   0.0156250
        k(   91) = (   0.3775510   0.2179792   0.0000000), wk =   0.0156250
        k(   92) = (   0.3673469   0.2120879   0.0000000), wk =   0.0156250
        k(   93) = (   0.3571429   0.2061965   0.0000000), wk =   0.0156250
        k(   94) = (   0.3469388   0.2003052   0.0000000), wk =   0.0156250
        k(   95) = (   0.3367347   0.1944139   0.0000000), wk =   0.0156250
        k(   96) = (   0.3265306   0.1885225   0.0000000), wk =   0.0156250
        k(   97) = (   0.3163265   0.1826312   0.0000000), wk =   0.0156250
        k(   98) = (   0.3061224   0.1767399   0.0000000), wk =   0.0156250
        k(   99) = (   0.2959184   0.1708485   0.0000000), wk =   0.0156250
        k(  100) = (   0.2857143   0.1649572   0.0000000), wk =   0.0156250
        k(  101) = (   0.2755102   0.1590659   0.0000000), wk =   0.0156250
        k(  102) = (   0.2653061   0.1531746   0.0000000), wk =   0.0156250
        k(  103) = (   0.2551020   0.1472832   0.0000000), wk =   0.0156250
        k(  104) = (   0.2448980   0.1413919   0.0000000), wk =   0.0156250
        k(  105) = (   0.2346939   0.1355006   0.0000000), wk =   0.0156250
        k(  106) = (   0.2244898   0.1296092   0.0000000), wk =   0.0156250
        k(  107) = (   0.2142857   0.1237179   0.0000000), wk =   0.0156250
        k(  108) = (   0.2040816   0.1178266   0.0000000), wk =   0.0156250
        k(  109) = (   0.1938776   0.1119353   0.0000000), wk =   0.0156250
        k(  110) = (   0.1836735   0.1060439   0.0000000), wk =   0.0156250
        k(  111) = (   0.1734694   0.1001526   0.0000000), wk =   0.0156250
        k(  112) = (   0.1632653   0.0942613   0.0000000), wk =   0.0156250
        k(  113) = (   0.1530612   0.0883699   0.0000000), wk =   0.0156250
        k(  114) = (   0.1428571   0.0824786   0.0000000), wk =   0.0156250
        k(  115) = (   0.1326531   0.0765873   0.0000000), wk =   0.0156250
        k(  116) = (   0.1224490   0.0706960   0.0000000), wk =   0.0156250
        k(  117) = (   0.1122449   0.0648046   0.0000000), wk =   0.0156250
        k(  118) = (   0.1020408   0.0589133   0.0000000), wk =   0.0156250
        k(  119) = (   0.0918367   0.0530220   0.0000000), wk =   0.0156250
        k(  120) = (   0.0816327   0.0471306   0.0000000), wk =   0.0156250
        k(  121) = (   0.0714286   0.0412393   0.0000000), wk =   0.0156250
        k(  122) = (   0.0612245   0.0353480   0.0000000), wk =   0.0156250
        k(  123) = (   0.0510204   0.0294566   0.0000000), wk =   0.0156250
        k(  124) = (   0.0408163   0.0235653   0.0000000), wk =   0.0156250
        k(  125) = (   0.0306122   0.0176740   0.0000000), wk =   0.0156250
        k(  126) = (   0.0204082   0.0117827   0.0000000), wk =   0.0156250
        k(  127) = (   0.0102041   0.0058913   0.0000000), wk =   0.0156250
        k(  128) = (   0.0000000   0.0000000   0.0000000), wk =   0.0156250

                       cryst. coord.
        k(    1) = (   0.0000000   0.0000000   0.0000000), wk =   0.0156250
        k(    2) = (   0.0067959   0.0067959   0.0000000), wk =   0.0156250
        k(    3) = (   0.0135918   0.0135918   0.0000000), wk =   0.0156250
        k(    4) = (   0.0203878   0.0203878   0.0000000), wk =   0.0156250
        k(    5) = (   0.0271837   0.0271837   0.0000000), wk =   0.0156250
        k(    6) = (   0.0339796   0.0339796   0.0000000), wk =   0.0156250
        k(    7) = (   0.0407755   0.0407755   0.0000000), wk =   0.0156250
        k(    8) = (   0.0475714   0.0475714   0.0000000), wk =   0.0156250
        k(    9) = (   0.0543673   0.0543673   0.0000000), wk =   0.0156250
        k(   10) = (   0.0611633   0.0611633   0.0000000), wk =   0.0156250
        k(   11) = (   0.0679592   0.0679592   0.0000000), wk =   0.0156250
        k(   12) = (   0.0747551   0.0747551   0.0000000), wk =   0.0156250
        k(   13) = (   0.0815510   0.0815510   0.0000000), wk =   0.0156250
        k(   14) = (   0.0883469   0.0883469   0.0000000), wk =   0.0156250
        k(   15) = (   0.0951429   0.0951429   0.0000000), wk =   0.0156250
        k(   16) = (   0.1019388   0.1019388   0.0000000), wk =   0.0156250
        k(   17) = (   0.1087347   0.1087347   0.0000000), wk =   0.0156250
        k(   18) = (   0.1155306   0.1155306   0.0000000), wk =   0.0156250
        k(   19) = (   0.1223265   0.1223265   0.0000000), wk =   0.0156250
        k(   20) = (   0.1291224   0.1291224   0.0000000), wk =   0.0156250
        k(   21) = (   0.1359184   0.1359184   0.0000000), wk =   0.0156250
        k(   22) = (   0.1427143   0.1427143   0.0000000), wk =   0.0156250
        k(   23) = (   0.1495102   0.1495102   0.0000000), wk =   0.0156250
        k(   24) = (   0.1563061   0.1563061   0.0000000), wk =   0.0156250
        k(   25) = (   0.1631020   0.1631020   0.0000000), wk =   0.0156250
        k(   26) = (   0.1698980   0.1698980   0.0000000), wk =   0.0156250
        k(   27) = (   0.1766939   0.1766939   0.0000000), wk =   0.0156250
        k(   28) = (   0.1834898   0.1834898   0.0000000), wk =   0.0156250
        k(   29) = (   0.1902857   0.1902857   0.0000000), wk =   0.0156250
        k(   30) = (   0.1970816   0.1970816   0.0000000), wk =   0.0156250
        k(   31) = (   0.2038776   0.2038776   0.0000000), wk =   0.0156250
        k(   32) = (   0.2106735   0.2106735   0.0000000), wk =   0.0156250
        k(   33) = (   0.2174694   0.2174694   0.0000000), wk =   0.0156250
        k(   34) = (   0.2242653   0.2242653   0.0000000), wk =   0.0156250
        k(   35) = (   0.2310612   0.2310612   0.0000000), wk =   0.0156250
        k(   36) = (   0.2378571   0.2378571   0.0000000), wk =   0.0156250
        k(   37) = (   0.2446531   0.2446531   0.0000000), wk =   0.0156250
        k(   38) = (   0.2514490   0.2514490   0.0000000), wk =   0.0156250
        k(   39) = (   0.2582449   0.2582449   0.0000000), wk =   0.0156250
        k(   40) = (   0.2650408   0.2650408   0.0000000), wk =   0.0156250
        k(   41) = (   0.2718367   0.2718367   0.0000000), wk =   0.0156250
        k(   42) = (   0.2786327   0.2786327   0.0000000), wk =   0.0156250
        k(   43) = (   0.2854286   0.2854286   0.0000000), wk =   0.0156250
        k(   44) = (   0.2922245   0.2922245   0.0000000), wk =   0.0156250
        k(   45) = (   0.2990204   0.2990204   0.0000000), wk =   0.0156250
        k(   46) = (   0.3058163   0.3058163   0.0000000), wk =   0.0156250
        k(   47) = (   0.3126122   0.3126122   0.0000000), wk =   0.0156250
        k(   48) = (   0.3194082   0.3194082   0.0000000), wk =   0.0156250
        k(   49) = (   0.3262041   0.3262041   0.0000000), wk =   0.0156250
        k(   50) = (   0.3330000   0.3330000   0.0000000), wk =   0.0156250
        k(   51) = (   0.3387586   0.3215172   0.0000000), wk =   0.0156250
        k(   52) = (   0.3445172   0.3100345   0.0000000), wk =   0.0156250
        k(   53) = (   0.3502759   0.2985517   0.0000000), wk =   0.0156250
        k(   54) = (   0.3560345   0.2870690   0.0000000), wk =   0.0156250
        k(   55) = (   0.3617931   0.2755862   0.0000000), wk =   0.0156250
        k(   56) = (   0.3675517   0.2641034   0.0000000), wk =   0.0156250
        k(   57) = (   0.3733103   0.2526207   0.0000000), wk =   0.0156250
        k(   58) = (   0.3790690   0.2411379   0.0000000), wk =   0.0156250
        k(   59) = (   0.3848276   0.2296552   0.0000000), wk =   0.0156250
        k(   60) = (   0.3905862   0.2181724   0.0000000), wk =   0.0156250
        k(   61) = (   0.3963448   0.2066897   0.0000000), wk =   0.0156250
        k(   62) = (   0.4021034   0.1952069   0.0000000), wk =   0.0156250
        k(   63) = (   0.4078621   0.1837241   0.0000000), wk =   0.0156250
        k(   64) = (   0.4136207   0.1722414   0.0000000), wk =   0.0156250
        k(   65) = (   0.4193793   0.1607586   0.0000000), wk =   0.0156250
        k(   66) = (   0.4251379   0.1492759   0.0000000), wk =   0.0156250
        k(   67) = (   0.4308966   0.1377931   0.0000000), wk =   0.0156250
        k(   68) = (   0.4366552   0.1263103   0.0000000), wk =   0.0156250
        k(   69) = (   0.4424138   0.1148276   0.0000000), wk =   0.0156250
        k(   70) = (   0.4481724   0.1033448   0.0000000), wk =   0.0156250
        k(   71) = (   0.4539310   0.0918621   0.0000000), wk =   0.0156250
        k(   72) = (   0.4596897   0.0803793   0.0000000), wk =   0.0156250
        k(   73) = (   0.4654483   0.0688966   0.0000000), wk =   0.0156250
        k(   74) = (   0.4712069   0.0574138   0.0000000), wk =   0.0156250
        k(   75) = (   0.4769655   0.0459310   0.0000000), wk =   0.0156250
        k(   76) = (   0.4827241   0.0344483   0.0000000), wk =   0.0156250
        k(   77) = (   0.4884828   0.0229655   0.0000000), wk =   0.0156250
        k(   78) = (   0.4942414   0.0114828   0.0000000), wk =   0.0156250
        k(   79) = (   0.5000000   0.0000000   0.0000000), wk =   0.0156250
        k(   80) = (   0.4897959   0.0000000   0.0000000), wk =   0.0156250
        k(   81) = (   0.4795918   0.0000000   0.0000000), wk =   0.0156250
        k(   82) = (   0.4693878   0.0000000   0.0000000), wk =   0.0156250
        k(   83) = (   0.4591837   0.0000000   0.0000000), wk =   0.0156250
        k(   84) = (   0.4489796   0.0000000   0.0000000), wk =   0.0156250
        k(   85) = (   0.4387755   0.0000000   0.0000000), wk =   0.0156250
        k(   86) = (   0.4285714   0.0000000   0.0000000), wk =   0.0156250
        k(   87) = (   0.4183673   0.0000000   0.0000000), wk =   0.0156250
        k(   88) = (   0.4081633   0.0000000   0.0000000), wk =   0.0156250
        k(   89) = (   0.3979592   0.0000000   0.0000000), wk =   0.0156250
        k(   90) = (   0.3877551   0.0000000   0.0000000), wk =   0.0156250
        k(   91) = (   0.3775510   0.0000000   0.0000000), wk =   0.0156250
        k(   92) = (   0.3673469   0.0000000   0.0000000), wk =   0.0156250
        k(   93) = (   0.3571429   0.0000000   0.0000000), wk =   0.0156250
        k(   94) = (   0.3469388   0.0000000   0.0000000), wk =   0.0156250
        k(   95) = (   0.3367347   0.0000000   0.0000000), wk =   0.0156250
        k(   96) = (   0.3265306   0.0000000   0.0000000), wk =   0.0156250
        k(   97) = (   0.3163265   0.0000000   0.0000000), wk =   0.0156250
        k(   98) = (   0.3061224   0.0000000   0.0000000), wk =   0.0156250
        k(   99) = (   0.2959184   0.0000000   0.0000000), wk =   0.0156250
        k(  100) = (   0.2857143   0.0000000   0.0000000), wk =   0.0156250
        k(  101) = (   0.2755102   0.0000000   0.0000000), wk =   0.0156250
        k(  102) = (   0.2653061   0.0000000   0.0000000), wk =   0.0156250
        k(  103) = (   0.2551020   0.0000000   0.0000000), wk =   0.0156250
        k(  104) = (   0.2448980   0.0000000   0.0000000), wk =   0.0156250
        k(  105) = (   0.2346939   0.0000000   0.0000000), wk =   0.0156250
        k(  106) = (   0.2244898   0.0000000   0.0000000), wk =   0.0156250
        k(  107) = (   0.2142857   0.0000000   0.0000000), wk =   0.0156250
        k(  108) = (   0.2040816   0.0000000   0.0000000), wk =   0.0156250
        k(  109) = (   0.1938776   0.0000000   0.0000000), wk =   0.0156250
        k(  110) = (   0.1836735   0.0000000   0.0000000), wk =   0.0156250
        k(  111) = (   0.1734694   0.0000000   0.0000000), wk =   0.0156250
        k(  112) = (   0.1632653   0.0000000   0.0000000), wk =   0.0156250
        k(  113) = (   0.1530612   0.0000000   0.0000000), wk =   0.0156250
        k(  114) = (   0.1428571   0.0000000   0.0000000), wk =   0.0156250
        k(  115) = (   0.1326531   0.0000000   0.0000000), wk =   0.0156250
        k(  116) = (   0.1224490   0.0000000   0.0000000), wk =   0.0156250
        k(  117) = (   0.1122449   0.0000000   0.0000000), wk =   0.0156250
        k(  118) = (   0.1020408   0.0000000   0.0000000), wk =   0.0156250
        k(  119) = (   0.0918367   0.0000000   0.0000000), wk =   0.0156250
        k(  120) = (   0.0816327   0.0000000   0.0000000), wk =   0.0156250
        k(  121) = (   0.0714286   0.0000000   0.0000000), wk =   0.0156250
        k(  122) = (   0.0612245   0.0000000   0.0000000), wk =   0.0156250
        k(  123) = (   0.0510204   0.0000000   0.0000000), wk =   0.0156250
        k(  124) = (   0.0408163   0.0000000   0.0000000), wk =   0.0156250
        k(  125) = (   0.0306122   0.0000000   0.0000000), wk =   0.0156250
        k(  126) = (   0.0204082   0.0000000   0.0000000), wk =   0.0156250
        k(  127) = (   0.0102041   0.0000000   0.0000000), wk =   0.0156250
        k(  128) = (   0.0000000   0.0000000   0.0000000), wk =   0.0156250

     Dense  grid:   133409 G-vectors     FFT dimensions: (  40,  40, 192)

     Dynamical RAM for                 wfc:       0.18 MB

     Dynamical RAM for     wfc (w. buffer):      11.46 MB

     Dynamical RAM for           str. fact:       0.06 MB

     Dynamical RAM for           local pot:       0.00 MB

     Dynamical RAM for          nlocal pot:       0.24 MB

     Dynamical RAM for                qrad:       7.71 MB

     Dynamical RAM for          rho,v,vnew:       0.19 MB

     Dynamical RAM for           G-vectors:       0.12 MB

     Dynamical RAM for          h,s,v(r/c):       0.01 MB

     Dynamical RAM for          <psi|beta>:       0.05 MB

     Dynamical RAM for                 psi:       0.35 MB

     Dynamical RAM for                hpsi:       0.35 MB

     Dynamical RAM for      wfcinit/wfcrot:       0.41 MB

     Estimated static dynamical RAM per process >      20.04 MB

     Estimated max dynamical RAM per process >      20.80 MB

     Estimated total dynamical RAM >       2.93 GB

     The potential is recalculated from file :
     ./WSe2.save/charge-density

     Starting wfcs are random

     Band Structure Calculation
     Davidson diagonalization with overlap

     Computing kpt #:     1  of    64 on this pool
     total cpu time spent up to now is        1.7 secs

     Computing kpt #:     2  of    64 on this pool
     total cpu time spent up to now is        2.4 secs

     Computing kpt #:     3  of    64 on this pool
     total cpu time spent up to now is        3.2 secs

     Computing kpt #:     4  of    64 on this pool
     total cpu time spent up to now is        3.9 secs

     Computing kpt #:     5  of    64 on this pool
     total cpu time spent up to now is        4.7 secs

     Computing kpt #:     6  of    64 on this pool
     total cpu time spent up to now is        5.6 secs

     Computing kpt #:     7  of    64 on this pool
     c_bands:  1 eigenvalues not converged
     total cpu time spent up to now is        6.6 secs

     Computing kpt #:     8  of    64 on this pool
     total cpu time spent up to now is        7.5 secs

     Computing kpt #:     9  of    64 on this pool
     total cpu time spent up to now is        8.3 secs

     Computing kpt #:    10  of    64 on this pool
     c_bands:  1 eigenvalues not converged
     total cpu time spent up to now is        9.2 secs

     Computing kpt #:    11  of    64 on this pool
     total cpu time spent up to now is       10.1 secs

     Computing kpt #:    12  of    64 on this pool
     total cpu time spent up to now is       10.8 secs

     Computing kpt #:    13  of    64 on this pool
     total cpu time spent up to now is       11.6 secs

     Computing kpt #:    14  of    64 on this pool
     total cpu time spent up to now is       12.5 secs

     Computing kpt #:    15  of    64 on this pool
     c_bands:  1 eigenvalues not converged
     total cpu time spent up to now is       13.5 secs

     Computing kpt #:    16  of    64 on this pool
     total cpu time spent up to now is       14.6 secs

     Computing kpt #:    17  of    64 on this pool
     total cpu time spent up to now is       15.6 secs

     Computing kpt #:    18  of    64 on this pool
     total cpu time spent up to now is       16.6 secs

     Computing kpt #:    19  of    64 on this pool
     total cpu time spent up to now is       17.6 secs

     Computing kpt #:    20  of    64 on this pool
     total cpu time spent up to now is       18.6 secs

     Computing kpt #:    21  of    64 on this pool
     total cpu time spent up to now is       19.6 secs

     Computing kpt #:    22  of    64 on this pool
     total cpu time spent up to now is       20.5 secs

     Computing kpt #:    23  of    64 on this pool
     total cpu time spent up to now is       21.3 secs

     Computing kpt #:    24  of    64 on this pool
     total cpu time spent up to now is       22.1 secs

     Computing kpt #:    25  of    64 on this pool
     total cpu time spent up to now is       22.9 secs

     Computing kpt #:    26  of    64 on this pool
     total cpu time spent up to now is       23.8 secs

     Computing kpt #:    27  of    64 on this pool
     total cpu time spent up to now is       24.7 secs

     Computing kpt #:    28  of    64 on this pool
     total cpu time spent up to now is       25.4 secs

     Computing kpt #:    29  of    64 on this pool
     total cpu time spent up to now is       26.2 secs

     Computing kpt #:    30  of    64 on this pool
     total cpu time spent up to now is       27.0 secs

     Computing kpt #:    31  of    64 on this pool
     total cpu time spent up to now is       27.7 secs

     Computing kpt #:    32  of    64 on this pool
     total cpu time spent up to now is       28.5 secs

     Computing kpt #:    33  of    64 on this pool
     total cpu time spent up to now is       29.2 secs

     Computing kpt #:    34  of    64 on this pool
     total cpu time spent up to now is       29.9 secs

     Computing kpt #:    35  of    64 on this pool
     total cpu time spent up to now is       30.7 secs

     Computing kpt #:    36  of    64 on this pool
     total cpu time spent up to now is       31.4 secs

     Computing kpt #:    37  of    64 on this pool
     total cpu time spent up to now is       32.2 secs

     Computing kpt #:    38  of    64 on this pool
     total cpu time spent up to now is       33.0 secs

     Computing kpt #:    39  of    64 on this pool
     total cpu time spent up to now is       33.9 secs

     Computing kpt #:    40  of    64 on this pool
     total cpu time spent up to now is       34.9 secs

     Computing kpt #:    41  of    64 on this pool
     total cpu time spent up to now is       35.6 secs

     Computing kpt #:    42  of    64 on this pool
     total cpu time spent up to now is       36.4 secs

     Computing kpt #:    43  of    64 on this pool
     total cpu time spent up to now is       37.1 secs

     Computing kpt #:    44  of    64 on this pool
     total cpu time spent up to now is       37.9 secs

     Computing kpt #:    45  of    64 on this pool
     total cpu time spent up to now is       38.7 secs

     Computing kpt #:    46  of    64 on this pool
     total cpu time spent up to now is       39.5 secs

     Computing kpt #:    47  of    64 on this pool
     total cpu time spent up to now is       40.2 secs

     Computing kpt #:    48  of    64 on this pool
     c_bands:  1 eigenvalues not converged
     total cpu time spent up to now is       41.2 secs

     Computing kpt #:    49  of    64 on this pool
     total cpu time spent up to now is       42.0 secs

     Computing kpt #:    50  of    64 on this pool
     total cpu time spent up to now is       42.7 secs

     Computing kpt #:    51  of    64 on this pool
     total cpu time spent up to now is       43.5 secs

     Computing kpt #:    52  of    64 on this pool
     total cpu time spent up to now is       44.3 secs

     Computing kpt #:    53  of    64 on this pool
     total cpu time spent up to now is       45.1 secs

     Computing kpt #:    54  of    64 on this pool
     total cpu time spent up to now is       45.9 secs

     Computing kpt #:    55  of    64 on this pool
     total cpu time spent up to now is       46.7 secs

     Computing kpt #:    56  of    64 on this pool
     total cpu time spent up to now is       47.6 secs

     Computing kpt #:    57  of    64 on this pool
     total cpu time spent up to now is       48.6 secs

     Computing kpt #:    58  of    64 on this pool
     total cpu time spent up to now is       49.5 secs

     Computing kpt #:    59  of    64 on this pool
     total cpu time spent up to now is       50.5 secs

     Computing kpt #:    60  of    64 on this pool
     total cpu time spent up to now is       51.4 secs

     Computing kpt #:    61  of    64 on this pool
     total cpu time spent up to now is       52.2 secs

     Computing kpt #:    62  of    64 on this pool
     total cpu time spent up to now is       52.9 secs

     Computing kpt #:    63  of    64 on this pool
     total cpu time spent up to now is       53.6 secs

     Computing kpt #:    64  of    64 on this pool
     total cpu time spent up to now is       54.4 secs

     ethr =  2.17E-12,  avg # of iterations = 72.4

     total cpu time spent up to now is       54.4 secs

     End of band structure calculation

          k = 0.0000 0.0000 0.0000 ( 16581 PWs)   bands (ev):

   -71.6615 -45.1674 -45.1674 -45.1669 -45.1669 -45.1268 -45.1268 -45.1257
   -45.1257 -45.1116 -45.1096 -35.8786 -35.7677 -35.7677 -12.2628 -11.0292
    -3.6745   0.1099   0.1099   0.2892   1.2123   1.2123   2.1155   5.3377
     5.3377   5.4960   5.4960   6.6110   7.4654   7.6217   9.1787  10.5345
    11.2375  12.7109  13.0386  13.0386  14.4590  15.3477  15.3477  16.3127
    16.8708  16.9135  18.8860  18.8860  19.2033  19.2033  19.5220  19.7663
    22.2888  22.2888

          k = 0.0068 0.0118 0.0000 ( 16585 PWs)   bands (ev):

   -71.6614 -45.1674 -45.1674 -45.1669 -45.1669 -45.1268 -45.1268 -45.1257
   -45.1257 -45.1116 -45.1096 -35.8785 -35.7679 -35.7677 -12.2608 -11.0282
    -3.6719   0.1033   0.1118   0.2837   1.2086   1.2142   2.1150   5.3315
     5.3415   5.4836   5.4932   6.6213   7.4684   7.6293   9.1823  10.5477
    11.2399  12.6889  13.0457  13.0519  14.4663  15.2974  15.3486  16.3415
    16.8777  16.9390  18.7949  18.8901  19.1843  19.1881  19.6223  19.7718
    22.2736  22.3055

          k = 0.0136 0.0235 0.0000 ( 16596 PWs)   bands (ev):

   -71.6614 -45.1674 -45.1674 -45.1670 -45.1669 -45.1268 -45.1268 -45.1257
   -45.1257 -45.1116 -45.1095 -35.8784 -35.7688 -35.7679 -12.2547 -11.0251
    -3.6640   0.0835   0.1178   0.2675   1.1975   1.2195   2.1135   5.3135
     5.3529   5.4483   5.4848   6.6507   7.4772   7.6522   9.1932  10.5870
    11.2471  12.6313  13.0661  13.0847  14.4871  15.1678  15.3513  16.4036
    16.8985  17.0176  18.6074  18.9026  19.1270  19.1451  19.7889  19.8381
    22.2353  22.3537

          k = 0.0204 0.0353 0.0000 ( 16608 PWs)   bands (ev):

   -71.6614 -45.1674 -45.1674 -45.1670 -45.1669 -45.1268 -45.1268 -45.1258
   -45.1257 -45.1116 -45.1095 -35.8781 -35.7703 -35.7683 -12.2446 -11.0200
    -3.6508   0.0511   0.1276   0.2413   1.1788   1.2278   2.1108   5.2847
     5.3718   5.3939   5.4710   6.6951   7.4917   7.6903   9.2113  10.6509
    11.2593  12.5516  13.0970  13.1283  14.5189  14.9947  15.3555  16.4626
    16.9327  17.1471  18.4021  18.9241  19.0321  19.0798  19.8180  20.0930
    22.1870  22.4280

          k = 0.0272 0.0471 0.0000 ( 16628 PWs)   bands (ev):

   -71.6613 -45.1674 -45.1673 -45.1670 -45.1669 -45.1269 -45.1268 -45.1258
   -45.1257 -45.1116 -45.1095 -35.8777 -35.7723 -35.7687 -12.2304 -11.0129
    -3.6323   0.0064   0.1413   0.2062   1.1523   1.2382   2.1067   5.2470
     5.3253   5.3979   5.4517   6.7496   7.5117   7.7436   9.2368  10.7373
    11.2766  12.4589  13.1326  13.1815  14.5583  14.8015  15.3603  16.5046
    16.9798  17.3102  18.2089  18.9021  18.9557  18.9986  19.8597  20.3633
    22.1364  22.5196

          k = 0.0340 0.0589 0.0000 ( 16628 PWs)   bands (ev):

   -71.6612 -45.1674 -45.1673 -45.1670 -45.1668 -45.1269 -45.1269 -45.1258
   -45.1257 -45.1116 -45.1095 -35.8771 -35.7748 -35.7694 -12.2123 -11.0038
    -3.6088  -0.0499   0.1587   0.1632   1.1176   1.2499   2.1011   5.2024
     5.2471   5.4271   5.4308   6.8100   7.5370   7.8113   9.2699  10.8434
    11.2992  12.3586  13.1678  13.2462  14.6006  14.6016  15.3648  16.5311
    17.0385  17.4716  18.0558  18.7416  18.9077  18.9996  19.9144  20.6398
    22.0853  22.6144

          k = 0.0408 0.0706 0.0000 ( 16630 PWs)   bands (ev):

   -71.6610 -45.1674 -45.1672 -45.1670 -45.1668 -45.1269 -45.1269 -45.1258
   -45.1257 -45.1115 -45.1095 -35.8765 -35.7779 -35.7701 -12.1903 -10.9927
    -3.5802  -0.1168   0.1138   0.1797   1.0747   1.2621   2.0935   5.1535
     5.1630   5.3974   5.4703   6.8734   7.5675   7.8927   9.3108  10.9653
    11.3282  12.2544  13.2007  13.3222  14.3990  14.6459  15.3672  16.5451
    17.1071  17.5574  18.0080  18.5561  18.8130  19.0592  19.9826  20.9161
    22.0302  22.6847

          k = 0.0476 0.0824 0.0000 ( 16636 PWs)   bands (ev):

   -71.6609 -45.1674 -45.1672 -45.1670 -45.1667 -45.1269 -45.1269 -45.1259
   -45.1258 -45.1115 -45.1094 -35.8758 -35.7815 -35.7710 -12.1644 -10.9797
    -3.5466  -0.1934   0.0591   0.2041   1.0231   1.2741   2.0836   5.0759
     5.1024   5.3628   5.5157   6.9380   7.6030   7.9860   9.3599  11.0967
    11.3662  12.1490  13.2313  13.4074  14.2008  14.6892  15.3652  16.5479
    17.1819  17.5178  18.1079  18.3520  18.7197  19.1400  20.0645  21.1833
    21.9622  22.4306

          k = 0.0544 0.0942 0.0000 ( 16644 PWs)   bands (ev):

   -71.6607 -45.1674 -45.1671 -45.1670 -45.1666 -45.1269 -45.1269 -45.1259
   -45.1258 -45.1115 -45.1094 -35.8749 -35.7856 -35.7720 -12.1347 -10.9648
    -3.5083  -0.2788   0.0001   0.2317   0.9629   1.2853   2.0711   4.9881
     5.0515   5.3238   5.5665   7.0030   7.6434   8.0893   9.4173  11.2258
    11.4213  12.0444  13.2597  13.4988  14.0090  14.7307  15.3556  16.5402
    17.2563  17.4389  18.1379  18.2621  18.6328  19.2493  20.1600  21.4189
    21.8647  22.2109

          k = 0.0612 0.1059 0.0000 ( 16640 PWs)   bands (ev):

   -71.6605 -45.1673 -45.1670 -45.1670 -45.1665 -45.1269 -45.1269 -45.1260
   -45.1258 -45.1114 -45.1093 -35.8740 -35.7901 -35.7732 -12.1013 -10.9480
    -3.4652  -0.3718  -0.0622   0.2621   0.8939   1.2951   2.0555   4.9016
     5.0026   5.2807   5.6222   7.0683   7.6884   8.2001   9.4837  11.3294
    11.5127  11.9423  13.2861  13.5929  13.8264  14.7712  15.3346  16.5249
    17.3142  17.3756  17.9298  18.4072  18.5577  19.3938  20.2683  21.5442
    21.7183  22.0991

          k = 0.0680 0.1177 0.0000 ( 16640 PWs)   bands (ev):

   -71.6603 -45.1673 -45.1670 -45.1669 -45.1665 -45.1270 -45.1269 -45.1260
   -45.1258 -45.1114 -45.1093 -35.8730 -35.7951 -35.7744 -12.0643 -10.9294
    -3.4177  -0.4714  -0.1270   0.2950   0.8164   1.3033   2.0364   4.8178
     4.9574   5.2342   5.6821   7.1341   7.7382   8.3159   9.5591  11.3986
    11.6440  11.8441  13.3102  13.6557  13.6853  14.8128  15.2984  16.5087
    17.3114  17.3407  17.7701  18.5004  18.5226  19.5742  20.3870  21.4670
    21.5172  21.8544

          k = 0.0748 0.1295 0.0000 ( 16644 PWs)   bands (ev):

   -71.6601 -45.1673 -45.1670 -45.1668 -45.1664 -45.1270 -45.1269 -45.1261
   -45.1258 -45.1113 -45.1092 -35.8719 -35.8004 -35.7759 -12.0237 -10.9091
    -3.3659  -0.5767  -0.1935   0.3300   0.7306   1.3096   2.0136   4.7380
     4.9170   5.1850   5.7453   7.2008   7.7925   8.4342   9.6438  11.4521
    11.7508  11.7909  13.3313  13.5006  13.7717  14.8583  15.2446  16.5007
    17.1865  17.3331  17.7162  18.4689  18.6046  19.7823  20.5089  21.2770
    21.2992  21.5796

          k = 0.0816 0.1413 0.0000 ( 16654 PWs)   bands (ev):

   -71.6598 -45.1673 -45.1670 -45.1667 -45.1663 -45.1270 -45.1269 -45.1262
   -45.1258 -45.1113 -45.1092 -35.8707 -35.8061 -35.7774 -11.9797 -10.8870
    -3.3100  -0.6865  -0.2611   0.3664   0.6371   1.3136   1.9869   4.6630
     4.8826   5.1340   5.8114   7.2690   7.8514   8.5526   9.7374  11.5008
    11.6637  11.9348  13.3487  13.3661  13.8477  14.9106  15.1734  16.5085
    16.9752  17.3476  17.7267  18.4722  18.6554  20.0016  20.6117  21.0168
    21.1303  21.3374

          k = 0.0883 0.1530 0.0000 ( 16648 PWs)   bands (ev):

   -71.6596 -45.1673 -45.1671 -45.1666 -45.1661 -45.1270 -45.1269 -45.1262
   -45.1258 -45.1112 -45.1091 -35.8694 -35.8122 -35.7791 -11.9325 -10.8633
    -3.2502  -0.8000  -0.3294   0.4036   0.5365   1.3153   1.9562   4.5933
     4.8545   5.0824   5.8794   7.3390   7.9147   8.6695   9.8388  11.5476
    11.5840  12.0622  13.2600  13.3613  13.9101  14.9701  15.0882  16.5362
    16.7372  17.3786  17.7405  18.5167  18.6781  20.2043  20.6221  20.7508
    20.9917  21.1974

          k = 0.0951 0.1648 0.0000 ( 16660 PWs)   bands (ev):

   -71.6593 -45.1672 -45.1671 -45.1665 -45.1660 -45.1271 -45.1269 -45.1263
   -45.1258 -45.1112 -45.1091 -35.8681 -35.8184 -35.7810 -11.8821 -10.8381
    -3.1870  -0.9162  -0.3981   0.4299   0.4407   1.3144   1.9219   4.5292
     4.8333   5.0313   5.9487   7.4114   7.9823   8.7833   9.9457  11.5134
    11.5930  12.1597  13.1929  13.3682  13.9577  14.9941  15.0329  16.4995
    16.5836  17.4212  17.7387  18.6013  18.6746  20.3420  20.4551  20.4977
    20.8774  21.2261

          k = 0.1019 0.1766 0.0000 ( 16648 PWs)   bands (ev):

   -71.6590 -45.1672 -45.1671 -45.1663 -45.1659 -45.1271 -45.1269 -45.1264
   -45.1259 -45.1111 -45.1090 -35.8667 -35.8249 -35.7830 -11.8287 -10.8114
    -3.1205  -1.0342  -0.4668   0.3181   0.4766   1.3109   1.8846   4.4706
     4.8190   4.9823   6.0185   7.4863   8.0541   8.8935  10.0547  11.4545
    11.6357  12.2156  13.1745  13.3685  13.9911  14.8969  15.0864  16.2825
    16.6480  17.4712  17.7220  18.6473  18.7187  20.1985  20.2496  20.3791
    20.7007  21.2618

          k = 0.1087 0.1883 0.0000 ( 16660 PWs)   bands (ev):

   -71.6587 -45.1672 -45.1671 -45.1662 -45.1658 -45.1271 -45.1270 -45.1265
   -45.1259 -45.1111 -45.1089 -35.8652 -35.8316 -35.7851 -11.7724 -10.7833
    -3.0512  -1.1532  -0.5355   0.2024   0.5099   1.3046   1.8451   4.4169
     4.8116   4.9371   6.0882   7.5641   8.1299   8.9996  10.1599  11.4110
    11.6737  12.2293  13.2047  13.3621  14.0118  14.8024  15.1055  16.1137
    16.7245  17.5245  17.6957  18.6016  18.8605  19.9367  19.9874  20.3559
    20.4692  21.3908

          k = 0.1155 0.2001 0.0000 ( 16670 PWs)   bands (ev):

   -71.6584 -45.1671 -45.1671 -45.1661 -45.1657 -45.1272 -45.1270 -45.1265
   -45.1259 -45.1110 -45.1089 -35.8637 -35.8384 -35.7873 -11.7135 -10.7539
    -2.9794  -1.2724  -0.6042   0.0843   0.5392   1.2953   1.8050   4.3675
     4.8109   4.8972   6.1569   7.6449   8.2097   9.1017  10.2538  11.3887
    11.7039  12.2145  13.2703  13.3493  14.0199  14.7155  15.0587  16.0263
    16.8062  17.5767  17.6648  18.5476  19.0200  19.6803  19.7218  20.2231
    20.3234  21.3027

          k = 0.1223 0.2119 0.0000 ( 16702 PWs)   bands (ev):

   -71.6581 -45.1671 -45.1671 -45.1659 -45.1656 -45.1272 -45.1270 -45.1266
   -45.1259 -45.1109 -45.1088 -35.8622 -35.8453 -35.7897 -11.6522 -10.7233
    -2.9057  -1.3908  -0.6734  -0.0348   0.5624   1.2831   1.7658   4.3217
     4.8165   4.8642   6.2240   7.7288   8.2932   9.1999  10.3270  11.3946
    11.7219  12.1902  13.3314  13.3539  14.0122  14.6406  14.9405  16.0288
    16.8824  17.6237  17.6321  18.5009  19.1924  19.4320  19.4592  19.9807
    20.2916  21.0962

          k = 0.1291 0.2236 0.0000 ( 16690 PWs)   bands (ev):

   -71.6578 -45.1671 -45.1670 -45.1658 -45.1654 -45.1273 -45.1270 -45.1267
   -45.1259 -45.1109 -45.1087 -35.8606 -35.8523 -35.7922 -11.5885 -10.6916
    -2.8307  -1.5077  -0.7437  -0.1530   0.5774   1.2678   1.7295   4.2790
     4.8281   4.8394   6.2889   7.8160   8.3801   9.2942  10.3717  11.4342
    11.7241  12.1718  13.3104  13.4418  13.9796  14.5813  14.7870  16.0928
    16.9373  17.5991  17.6647  18.4789  19.1887  19.2035  19.3785  19.7434
    20.2640  20.8602

          k = 0.1359 0.2354 0.0000 ( 16678 PWs)   bands (ev):

   -71.6575 -45.1671 -45.1670 -45.1657 -45.1653 -45.1273 -45.1270 -45.1268
   -45.1260 -45.1108 -45.1087 -35.8592 -35.8590 -35.7949 -11.5228 -10.6590
    -2.7550  -1.6221  -0.8160  -0.2682   0.5822   1.2493   1.6984   4.2394
     4.8233   4.8453   6.3510   7.9065   8.4704   9.3841  10.3857  11.5081
    11.7101  12.1669  13.2882  13.5257  13.9060  14.5399  14.6438  16.1861
    16.9512  17.5655  17.7068  18.4934  18.9380  18.9809  19.5145  19.5664
    20.2357  20.6213

          k = 0.1427 0.2472 0.0000 ( 16690 PWs)   bands (ev):

   -71.6571 -45.1671 -45.1670 -45.1655 -45.1652 -45.1274 -45.1270 -45.1269
   -45.1260 -45.1107 -45.1086 -35.8661 -35.8574 -35.7976 -11.4553 -10.6255
    -2.6799  -1.7327  -0.8918  -0.3778   0.5749   1.2275   1.6740   4.2032
     4.8161   4.8674   6.4098   8.0003   8.5636   9.4686  10.3734  11.6103
    11.6840  12.1750  13.2667  13.6020  13.7787  14.5176  14.5420  16.2876
    16.9102  17.5284  17.7600  18.5439  18.6898  18.7832  19.2974  19.7558
    20.2034  20.3882

          k = 0.1495 0.2590 0.0000 ( 16708 PWs)   bands (ev):

   -71.6568 -45.1671 -45.1669 -45.1654 -45.1651 -45.1274 -45.1270 -45.1269
   -45.1260 -45.1107 -45.1085 -35.8729 -35.8558 -35.8006 -11.3863 -10.5913
    -2.6070  -1.8376  -0.9726  -0.4794   0.5541   1.2026   1.6577   4.1715
     4.8172   4.8941   6.4648   8.0974   8.6597   9.5448  10.3442  11.6523
    11.7313  12.1922  13.2464  13.6059  13.6704  14.4849  14.5136  16.3843
    16.8169  17.4818  17.8238  18.4477  18.6165  18.6176  19.0971  19.9236
    20.1692  20.1749

          k = 0.1563 0.2707 0.0000 ( 16690 PWs)   bands (ev):

   -71.6565 -45.1671 -45.1668 -45.1653 -45.1650 -45.1275 -45.1270 -45.1270
   -45.1260 -45.1106 -45.1084 -35.8796 -35.8541 -35.8036 -11.3159 -10.5565
    -2.5394  -1.9339  -1.0599  -0.5705   0.5195   1.1745   1.6496   4.1453
     4.8257   4.9247   6.5156   8.1978   8.7583   9.6078  10.3096  11.6206
    11.8604  12.2143  13.2204  13.4187  13.7329  14.4574  14.5250  16.4676
    16.6846  17.4170  17.8845  18.2129  18.4893  18.6939  18.9234  19.8992
    20.0962  20.1432

          k = 0.1631 0.2825 0.0000 ( 16700 PWs)   bands (ev):

   -71.6561 -45.1671 -45.1668 -45.1652 -45.1649 -45.1275 -45.1271 -45.1270
   -45.1261 -45.1105 -45.1084 -35.8861 -35.8525 -35.8068 -11.2445 -10.5212
    -2.4831  -2.0154  -1.1543  -0.6498   0.4718   1.1431   1.6491   4.1260
     4.8404   4.9586   6.5621   8.3014   8.8592   9.6489  10.2831  11.5930
    11.9846  12.2389  13.1360  13.2953  13.7931  14.4451  14.5482  16.5270
    16.5304  17.3282  17.9201  17.9866  18.4041  18.7367  18.8044  19.7110
    20.0183  20.1425

          k = 0.1699 0.2943 0.0000 ( 16704 PWs)   bands (ev):

   -71.6558 -45.1671 -45.1667 -45.1650 -45.1648 -45.1276 -45.1272 -45.1270
   -45.1261 -45.1105 -45.1083 -35.8924 -35.8509 -35.8100 -11.1724 -10.4857
    -2.4501  -2.0702  -1.2551  -0.7172   0.4122   1.1087   1.6550   4.1150
     4.8599   4.9953   6.6042   8.4080   8.9621   9.6580  10.2787  11.5718
    12.0837  12.2648  12.9827  13.2736  13.8540  14.4393  14.5792  16.3542
    16.5658  17.2194  17.7707  17.9051  18.3500  18.6986  18.7859  19.5241
    19.8969  20.1854

          k = 0.1767 0.3060 0.0000 ( 16708 PWs)   bands (ev):

   -71.6555 -45.1670 -45.1667 -45.1649 -45.1647 -45.1277 -45.1272 -45.1270
   -45.1261 -45.1104 -45.1082 -35.8983 -35.8494 -35.8134 -11.0998 -10.4500
    -2.4551  -2.0836  -1.3608  -0.7734   0.3423   1.0712   1.6656   4.1132
     4.8829   5.0339   6.6418   8.5174   9.0669   9.6298  10.3040  11.5586
    12.1205  12.2923  12.8737  13.2817  13.9177  14.4354  14.6147  16.1730
    16.5627  17.1053  17.5700  17.8296  18.3034  18.6956  18.7486  19.3493
    19.8034  20.2781

          k = 0.1835 0.3178 0.0000 ( 16716 PWs)   bands (ev):

   -71.6552 -45.1670 -45.1666 -45.1648 -45.1646 -45.1277 -45.1273 -45.1270
   -45.1262 -45.1104 -45.1081 -35.9040 -35.8478 -35.8169 -11.0272 -10.4144
    -2.4968  -2.0571  -1.4694  -0.8199   0.2639   1.0308   1.6797   4.1213
     4.9078   5.0737   6.6753   8.6293   9.1732   9.5698  10.3556  11.5540
    12.0595  12.3222  12.8618  13.3040  13.9850  14.4311  14.6526  15.9876
    16.5080  16.9996  17.3957  17.7093  18.2398  18.6634  18.7440  19.1832
    19.7652  20.4086

          k = 0.1903 0.3296 0.0000 ( 16724 PWs)   bands (ev):

   -71.6549 -45.1670 -45.1665 -45.1647 -45.1645 -45.1278 -45.1274 -45.1270
   -45.1262 -45.1103 -45.1081 -35.9094 -35.8463 -35.8206 -10.9548 -10.3789
    -2.5578  -2.0081  -1.5792  -0.8579   0.1786   0.9878   1.6961   4.1397
     4.9335   5.1141   6.7051   8.7429   9.2808   9.4884  10.4240  11.5584
    11.9221  12.3556  12.9289  13.3397  14.0548  14.4255  14.6918  15.8016
    16.3999  16.8911  17.2702  17.5667  18.1472  18.5464  18.8167  19.0206
    19.7914  20.5505

          k = 0.1971 0.3414 0.0000 ( 16710 PWs)   bands (ev):

   -71.6546 -45.1670 -45.1665 -45.1646 -45.1644 -45.1278 -45.1274 -45.1269
   -45.1262 -45.1102 -45.1080 -35.9144 -35.8449 -35.8243 -10.8831 -10.3438
    -2.6250  -1.9499  -1.6884  -0.8886   0.0877   0.9422   1.7142   4.1680
     4.9586   5.1540   6.7317   8.8562   9.3896   9.3961  10.4995  11.5718
    11.7554  12.3938  13.0279  13.3909  14.1244  14.4187  14.7327  15.6174
    16.2549  16.7537  17.2089  17.4159  18.0292  18.4063  18.8590  18.9016
    19.8723  20.6659

          k = 0.2039 0.3531 0.0000 ( 16722 PWs)   bands (ev):

   -71.6543 -45.1669 -45.1664 -45.1645 -45.1643 -45.1279 -45.1275 -45.1269
   -45.1263 -45.1102 -45.1079 -35.9190 -35.8434 -35.8281 -10.8123 -10.3092
    -2.6918  -1.8891  -1.7959  -0.9129  -0.0077   0.8944   1.7340   4.2055
     4.9824   5.1927   6.7558   8.9631   9.3051   9.4993  10.5720  11.5911
    11.5942  12.4378  13.1282  13.4618  14.1896  14.4113  14.7768  15.4377
    16.0917  16.5908  17.1913  17.2646  17.8989  18.2525  18.6996  18.9886
    19.9873  20.7127

          k = 0.2107 0.3649 0.0000 ( 16716 PWs)   bands (ev):

   -71.6540 -45.1669 -45.1663 -45.1645 -45.1643 -45.1279 -45.1275 -45.1269
   -45.1263 -45.1101 -45.1079 -35.9232 -35.8421 -35.8320 -10.7429 -10.2753
    -2.7551  -1.9006  -1.8290  -0.9314  -0.1065   0.8445   1.7554   4.2504
     5.0043   5.2292   6.7784   9.0325   9.2498   9.6096  10.6271  11.4526
    11.6251  12.4886  13.2142  13.5553  14.2446  14.4037  14.8256  15.2665
    15.9225  16.4178  17.1167  17.1850  17.7731  18.0912  18.5447  19.0706
    20.1122  20.6847

          k = 0.2175 0.3767 0.0000 ( 16724 PWs)   bands (ev):

   -71.6538 -45.1668 -45.1663 -45.1644 -45.1642 -45.1280 -45.1276 -45.1269
   -45.1263 -45.1101 -45.1078 -35.9269 -35.8408 -35.8360 -10.6753 -10.2423
    -2.8132  -2.0017  -1.7714  -0.9447  -0.2081   0.7930   1.7791   4.3007
     5.0244   5.2626   6.8003   8.9992   9.2979   9.7202  10.6432  11.3660
    11.6643  12.5466  13.2820  13.6677  14.2824  14.3964  14.8763  15.1130
    15.7552  16.2437  16.9743  17.1612  17.6721  17.9269  18.3979  19.1411
    20.2197  20.6193

          k = 0.2243 0.3884 0.0000 ( 16736 PWs)   bands (ev):

   -71.6535 -45.1668 -45.1662 -45.1643 -45.1642 -45.1280 -45.1276 -45.1269
   -45.1264 -45.1100 -45.1078 -35.9302 -35.8401 -35.8395 -10.6097 -10.2103
    -2.8648  -2.0985  -1.7176  -0.9532  -0.3116   0.7402   1.8054   4.3529
     5.0437   5.2920   6.8227   8.9103   9.4030   9.8310  10.6035  11.3518
    11.7111  12.6121  13.3345  13.7907  14.2957  14.3889  14.8805  15.0324
    15.5955  16.0729  16.8384  17.0977  17.6119  17.7628  18.2651  19.1934
    20.2808  20.5495

          k = 0.2311 0.4002 0.0000 ( 16716 PWs)   bands (ev):

   -71.6533 -45.1667 -45.1661 -45.1643 -45.1642 -45.1281 -45.1277 -45.1269
   -45.1264 -45.1100 -45.1077 -35.9330 -35.8443 -35.8384 -10.5467 -10.1796
    -2.9093  -2.1905  -1.6684  -0.9573  -0.4163   0.6864   1.8351   4.4027
     5.0647   5.3168   6.8463   8.8115   9.5179   9.9416  10.5201  11.4022
    11.7650  12.6848  13.3753  13.9158  14.2781  14.3795  14.7854  15.0837
    15.4493  15.9080  16.7096  16.9951  17.5825  17.6015  18.1564  19.2208
    20.2776  20.4919

          k = 0.2379 0.4120 0.0000 ( 16716 PWs)   bands (ev):

   -71.6530 -45.1667 -45.1660 -45.1642 -45.1641 -45.1282 -45.1277 -45.1269
   -45.1264 -45.1099 -45.1077 -35.9353 -35.8485 -35.8373 -10.4866 -10.1502
    -2.9461  -2.2774  -1.6244  -0.9574  -0.5215   0.6320   1.8684   4.4446
     5.0907   5.3364   6.8719   8.7135   9.6263  10.0516  10.4241  11.4934
    11.8253  12.7641  13.4062  14.0339  14.2252  14.3671  14.6899  15.1722
    15.3228  15.7512  16.5879  16.8717  17.4452  17.5513  18.0873  19.2187
    20.2190  20.4528

          k = 0.2447 0.4238 0.0000 ( 16748 PWs)   bands (ev):

   -71.6528 -45.1666 -45.1659 -45.1642 -45.1641 -45.1282 -45.1277 -45.1269
   -45.1265 -45.1099 -45.1076 -35.9371 -35.8528 -35.8363 -10.4297 -10.1224
    -2.9747  -2.3586  -1.5863  -0.9539  -0.6265   0.5774   1.9058   4.4727
     5.1263   5.3503   6.9000   8.6196   9.7100  10.1606  10.3495  11.6080
    11.8910  12.8493  13.4281  14.1258  14.1399  14.3606  14.6189  15.2209
    15.2695  15.6059  16.4734  16.7437  17.2961  17.4922  18.0690  19.1867
    20.1289  20.4300

          k = 0.2514 0.4355 0.0000 ( 16756 PWs)   bands (ev):

   -71.6526 -45.1665 -45.1658 -45.1642 -45.1641 -45.1282 -45.1277 -45.1268
   -45.1265 -45.1099 -45.1076 -35.9384 -35.8571 -35.8353 -10.3763 -10.0962
    -2.9948  -2.4340  -1.5547  -0.9472  -0.7301   0.5233   1.9473   4.4825
     5.1745   5.3587   6.9309   8.5315   9.7405  10.2681  10.3325  11.7367
    11.9608  12.9390  13.4417  14.0338  14.1460  14.3976  14.5692  15.1432
    15.3667  15.4776  16.3666  16.6212  17.1564  17.4040  18.0944  19.1285
    20.0269  20.4141

          k = 0.2582 0.4473 0.0000 ( 16754 PWs)   bands (ev):

   -71.6525 -45.1665 -45.1657 -45.1642 -45.1641 -45.1283 -45.1278 -45.1268
   -45.1265 -45.1098 -45.1075 -35.9391 -35.8615 -35.8344 -10.3268 -10.0719
    -3.0063  -2.5033  -1.5303  -0.9377  -0.8311   0.4700   1.9927   4.4726
     5.2362   5.3616   6.9644   8.4503   9.7046  10.3737  10.3906  11.8745
    12.0332  13.0315  13.4477  13.9196  14.0882  14.4811  14.5343  15.0782
    15.3773  15.4553  16.2691  16.5113  17.0285  17.2991  18.1456  19.0506
    19.9252  20.3919

          k = 0.2650 0.4591 0.0000 ( 16752 PWs)   bands (ev):

   -71.6523 -45.1664 -45.1657 -45.1642 -45.1642 -45.1283 -45.1278 -45.1268
   -45.1266 -45.1098 -45.1075 -35.9394 -35.8659 -35.8337 -10.2814 -10.0495
    -3.0091  -2.5663  -1.5146  -0.9275  -0.9259   0.4181   2.0416   4.4445
     5.3091   5.3595   7.0002   8.3770   9.6250  10.4765  10.5025  12.0181
    12.1061  13.1247  13.4467  13.8071  13.9913  14.5110  14.5727  15.0067
    15.3191  15.5244  16.1850  16.4197  16.9149  17.1884  18.2084  18.9602
    19.8315  20.3514

          k = 0.2718 0.4708 0.0000 ( 16752 PWs)   bands (ev):

   -71.6522 -45.1663 -45.1656 -45.1642 -45.1642 -45.1284 -45.1278 -45.1268
   -45.1266 -45.1098 -45.1075 -35.9392 -35.8703 -35.8330 -10.2403 -10.0291
    -3.0032  -2.6229  -1.5094  -1.0164  -0.9124   0.3683   2.0933   4.4019
     5.3531   5.3894   7.0377   8.3123   9.5271  10.5759  10.6435  12.1646
    12.1769  13.2147  13.4396  13.7041  13.8764  14.4998  14.6514  14.9205
    15.3071  15.5601  16.1203  16.3503  16.8192  17.0780  18.2735  18.8638
    19.7512  20.2880

          k = 0.2786 0.4826 0.0000 ( 16758 PWs)   bands (ev):

   -71.6520 -45.1662 -45.1655 -45.1642 -45.1642 -45.1284 -45.1278 -45.1268
   -45.1266 -45.1097 -45.1074 -35.9386 -35.8747 -35.8323 -10.2036 -10.0109
    -2.9891  -2.6730  -1.5177  -1.0940  -0.8977   0.3212   2.1469   4.3489
     5.3433   5.4730   7.0758   8.2571   9.4240  10.6707  10.8003  12.2428
    12.3106  13.2933  13.4276  13.6214  13.7542  14.5022  14.7035  14.8277
    15.3342  15.5513  16.0774  16.3047  16.7450  16.9717  18.3349  18.7678
    19.6882  20.2057

          k = 0.2854 0.4944 0.0000 ( 16748 PWs)   bands (ev):

   -71.6519 -45.1661 -45.1654 -45.1643 -45.1642 -45.1284 -45.1278 -45.1268
   -45.1267 -45.1097 -45.1074 -35.9375 -35.8790 -35.8318 -10.1716  -9.9948
    -2.9671  -2.7167  -1.5428  -1.1558  -0.8825   0.2774   2.2009   4.2895
     5.3310   5.5562   7.1137   8.2125   9.3214  10.7599  10.9662  12.3008
    12.4508  13.3370  13.4124  13.5846  13.6330  14.5200  14.7169  14.7397
    15.3944  15.5009  16.0453  16.2808  16.6957  16.8718  18.3889  18.6784
    19.6448  20.1123

          k = 0.2922 0.5061 0.0000 ( 16748 PWs)   bands (ev):

   -71.6518 -45.1661 -45.1653 -45.1643 -45.1643 -45.1285 -45.1278 -45.1268
   -45.1267 -45.1097 -45.1074 -35.9360 -35.8833 -35.8313 -10.1441  -9.9809
    -2.9382  -2.7540  -1.5853  -1.1996  -0.8675   0.2378   2.2540   4.2276
     5.3173   5.6351   7.1501   8.1794   9.2221  10.8419  11.1371  12.3486
    12.5770  13.3211  13.3933  13.5246  13.6201  14.5533  14.6462  14.7073
    15.4237  15.4811  16.0056  16.2731  16.6707  16.7796  18.4337  18.6021
    19.6214  20.0149

          k = 0.2990 0.5179 0.0000 ( 16744 PWs)   bands (ev):

   -71.6518 -45.1660 -45.1652 -45.1644 -45.1643 -45.1285 -45.1278 -45.1267
   -45.1267 -45.1097 -45.1074 -35.9341 -35.8874 -35.8309 -10.1213  -9.9693
    -2.9038  -2.7849  -1.6412  -1.2276  -0.8535   0.2030   2.3041   4.1669
     5.3030   5.7068   7.1838   8.1587   9.1277  10.9151  11.3089  12.3853
    12.6771  13.2742  13.3459  13.4678  13.7014  14.5654  14.5987  14.6666
    15.3355  15.5854  15.9476  16.2742  16.6629  16.6956  18.4698  18.5444
    19.6146  19.9186

          k = 0.3058 0.5297 0.0000 ( 16724 PWs)   bands (ev):

   -71.6517 -45.1659 -45.1651 -45.1644 -45.1644 -45.1285 -45.1278 -45.1268
   -45.1267 -45.1097 -45.1074 -35.9320 -35.8914 -35.8306 -10.1030  -9.9599
    -2.8659  -2.8096  -1.7031  -1.2446  -0.8411   0.1737   2.3493   4.1110
     5.2893   5.7684   7.2138   8.1508   9.0400  10.9774  11.4765  12.4120
    12.7391  13.2238  13.2584  13.4888  13.8014  14.4902  14.6131  14.6475
    15.2512  15.6982  15.8710  16.2782  16.6186  16.6620  18.4990  18.5089
    19.6117  19.7951

          k = 0.3126 0.5415 0.0000 ( 16716 PWs)   bands (ev):

   -71.6516 -45.1658 -45.1650 -45.1645 -45.1645 -45.1285 -45.1278 -45.1268
   -45.1267 -45.1097 -45.1074 -35.9297 -35.8951 -35.8304 -10.0891  -9.9527
    -2.8284  -2.8277  -1.7633  -1.2549  -0.8309   0.1506   2.3875   4.0633
     5.2771   5.8176   7.2388   8.1549   8.9611  11.0272  11.6320  12.4311
    12.7639  13.1653  13.1787  13.5552  13.9103  14.4221  14.5550  14.6825
    15.1890  15.7814  15.8113  16.2823  16.5452  16.6601  18.4952  18.5231
    19.5152  19.6761

          k = 0.3194 0.5532 0.0000 ( 16728 PWs)   bands (ev):

   -71.6516 -45.1658 -45.1649 -45.1645 -45.1645 -45.1285 -45.1278 -45.1268
   -45.1267 -45.1097 -45.1073 -35.9275 -35.8983 -35.8302 -10.0794  -9.9476
    -2.8414  -2.7934  -1.8146  -1.2612  -0.8235   0.1339   2.4164   4.0266
     5.2673   5.8532   7.2578   8.1678   8.8950  11.0630  11.7625  12.4449
    12.7726  13.0752  13.1425  13.6405  14.0196  14.3683  14.4968  14.6835
    15.1677  15.6881  15.9162  16.2886  16.4715  16.6547  18.4982  18.5409
    19.3499  19.6801

          k = 0.3262 0.5650 0.0000 ( 16762 PWs)   bands (ev):

   -71.6516 -45.1658 -45.1648 -45.1646 -45.1645 -45.1285 -45.1278 -45.1268
   -45.1267 -45.1097 -45.1073 -35.9258 -35.9006 -35.8301 -10.0737  -9.9446
    -2.8491  -2.7685  -1.8500  -1.2650  -0.8191   0.1240   2.4346   4.0035
     5.2608   5.8744   7.2700   8.1832   8.8478  11.0843  11.8505  12.4544
    12.7941  12.9896  13.1180  13.7132  14.1129  14.3453  14.4391  14.6532
    15.1823  15.6088  16.0002  16.3029  16.3968  16.6477  18.5081  18.5497
    19.2409  19.6399

          k = 0.3330 0.5768 0.0000 ( 16752 PWs)   bands (ev):

   -71.6516 -45.1657 -45.1647 -45.1647 -45.1645 -45.1285 -45.1278 -45.1268
   -45.1267 -45.1097 -45.1073 -35.9251 -35.9015 -35.8301 -10.0718  -9.9436
    -2.8517  -2.7585  -1.8636  -1.2664  -0.8176   0.1205   2.4410   3.9952
     5.2582   5.8817   7.2744   8.1914   8.8287  11.0916  11.8821  12.4584
    12.8287  12.9309  13.1087  13.7427  14.1563  14.3725  14.3818  14.6316
    15.1958  15.5734  16.0392  16.3306  16.3380  16.6439  18.5140  18.5504
    19.2035  19.6249

          k = 0.3388 0.5668 0.0000 ( 16746 PWs)   bands (ev):

   -71.6516 -45.1658 -45.1648 -45.1646 -45.1645 -45.1285 -45.1278 -45.1268
   -45.1267 -45.1097 -45.1073 -35.9256 -35.9008 -35.8301 -10.0730  -9.9443
    -2.8500  -2.7659  -1.8540  -1.2652  -0.8185   0.1228   2.4367   4.0008
     5.2601   5.8770   7.2712   8.1838   8.8434  11.0870  11.8631  12.4550
    12.7861  12.9873  13.1154  13.7251  14.1237  14.3226  14.4484  14.6463
    15.1900  15.5970  16.0074  16.3223  16.3743  16.6480  18.5086  18.5537
    19.2251  19.6337

          k = 0.3445 0.5569 0.0000 ( 16752 PWs)   bands (ev):

   -71.6516 -45.1658 -45.1649 -45.1646 -45.1645 -45.1285 -45.1278 -45.1268
   -45.1267 -45.1097 -45.1073 -35.9271 -35.8990 -35.8302 -10.0765  -9.9462
    -2.8453  -2.7870  -1.8272  -1.2610  -0.8209   0.1289   2.4249   4.0166
     5.2659   5.8642   7.2619   8.1607   8.8863  11.0748  11.8154  12.4445
    12.7147  13.0898  13.1339  13.6843  14.0419  14.2655  14.5429  14.6664
    15.1970  15.6517  15.9283  16.3487  16.4197  16.6625  18.4927  18.5694
    19.2789  19.6545

          k = 0.3503 0.5470 0.0000 ( 16733 PWs)   bands (ev):

   -71.6516 -45.1658 -45.1650 -45.1645 -45.1645 -45.1285 -45.1278 -45.1268
   -45.1267 -45.1097 -45.1073 -35.9292 -35.8963 -35.8303 -10.0821  -9.9493
    -2.8380  -2.8202  -1.7865  -1.2522  -0.8243   0.1383   2.4065   4.0415
     5.2759   5.8443   7.2463   8.1235   8.9546  11.0564  11.7484  12.4265
    12.6384  13.1600  13.1973  13.6377  13.9336  14.2038  14.6490  14.6599
    15.2467  15.7189  15.8272  16.3986  16.4679  16.6910  18.4678  18.6030
    19.3513  19.6790

          k = 0.3560 0.5370 0.0000 ( 16744 PWs)   bands (ev):

   -71.6516 -45.1659 -45.1651 -45.1644 -45.1644 -45.1285 -45.1278 -45.1268
   -45.1267 -45.1097 -45.1074 -35.9317 -35.8930 -35.8304 -10.0895  -9.9534
    -2.8630  -2.8283  -1.7372  -1.2362  -0.8281   0.1506   2.3828   4.0742
     5.2904   5.8184   7.2245   8.0757   9.0438  11.0330  11.6693  12.4019
    12.5604  13.1834  13.2784  13.6094  13.8187  14.1387  14.6236  14.7585
    15.3395  15.7208  15.7881  16.4612  16.5217  16.7363  18.4372  18.6557
    19.4246  19.6857

          k = 0.3618 0.5271 0.0000 ( 16740 PWs)   bands (ev):

   -71.6517 -45.1660 -45.1652 -45.1644 -45.1643 -45.1285 -45.1278 -45.1267
   -45.1267 -45.1097 -45.1074 -35.9344 -35.8893 -35.8306 -10.0986  -9.9584
    -2.9126  -2.8167  -1.6857  -1.2095  -0.8319   0.1649   2.3552   4.1132
     5.3098   5.7876   7.1965   8.0207   9.1491  11.0060  11.5825  12.3719
    12.4818  13.1836  13.2951  13.6278  13.7213  14.0751  14.5729  14.8671
    15.4564  15.6191  15.8571  16.5182  16.5981  16.7993  18.4048  18.7254
    19.4717  19.7293

          k = 0.3676 0.5172 0.0000 ( 16732 PWs)   bands (ev):

   -71.6517 -45.1660 -45.1652 -45.1643 -45.1643 -45.1285 -45.1278 -45.1268
   -45.1267 -45.1097 -45.1074 -35.9372 -35.8854 -35.8308 -10.1090  -9.9643
    -2.9668  -2.8034  -1.6388  -1.1676  -0.8351   0.1809   2.3249   4.1571
     5.3343   5.7530   7.1626   7.9608   9.2670  10.9765  11.4910  12.3379
    12.4028  13.1314  13.2508  13.6704  13.6709  14.0269  14.5218  14.9734
    15.5295  15.5760  15.9322  16.5624  16.7050  16.8792  18.3745  18.8080
    19.4793  19.7705

          k = 0.3733 0.5072 0.0000 ( 16734 PWs)   bands (ev):

   -71.6518 -45.1661 -45.1653 -45.1642 -45.1642 -45.1285 -45.1278 -45.1268
   -45.1267 -45.1097 -45.1074 -35.9400 -35.8812 -35.8310 -10.1207  -9.9709
    -3.0238  -2.7888  -1.6018  -1.1073  -0.8372   0.1977   2.2931   4.2045
     5.3641   5.7155   7.1231   7.8979   9.3943  10.9451  11.3967  12.3012
    12.3236  13.0177  13.1780  13.6724  13.6788  14.0180  14.4799  15.0762
    15.4588  15.6765  16.0282  16.6023  16.8348  16.9726  18.3502  18.8979
    19.4643  19.8069

          k = 0.3791 0.4973 0.0000 ( 16720 PWs)   bands (ev):

   -71.6518 -45.1662 -45.1654 -45.1642 -45.1641 -45.1284 -45.1278 -45.1268
   -45.1267 -45.1097 -45.1074 -35.9429 -35.8770 -35.8312 -10.1334  -9.9781
    -3.0822  -2.7734  -1.5768  -1.0282  -0.8377   0.2150   2.2606   4.2541
     5.3994   5.6759   7.0785   7.8331   9.5286  10.9126  11.3010  12.2442
    12.2627  12.8630  13.0926  13.6325  13.7031  14.0485  14.4552  15.1670
    15.4208  15.7443  16.1562  16.6425  16.9831  17.0749  18.3357  18.9884
    19.4416  19.8480

          k = 0.3848 0.4874 0.0000 ( 16726 PWs)   bands (ev):

   -71.6519 -45.1663 -45.1655 -45.1641 -45.1641 -45.1284 -45.1279 -45.1268
   -45.1266 -45.1097 -45.1074 -35.9457 -35.8726 -35.8315 -10.1469  -9.9859
    -3.1409  -2.7574  -1.5624  -0.9326  -0.8363   0.2323   2.2281   4.3049
     5.4403   5.6350   7.0294   7.7671   9.6677  10.8793  11.2052  12.1648
    12.2231  12.6867  13.0006  13.5565  13.7375  14.0884  14.4548  15.2134
    15.4505  15.7843  16.3110  16.6856  17.1469  17.1808  18.3356  19.0702
    19.4208  19.8938

          k = 0.3906 0.4774 0.0000 ( 16726 PWs)   bands (ev):

   -71.6519 -45.1664 -45.1656 -45.1640 -45.1640 -45.1284 -45.1279 -45.1268
   -45.1266 -45.1097 -45.1074 -35.9484 -35.8683 -35.8317 -10.1611  -9.9940
    -3.1993  -2.7411  -1.5564  -0.8327  -0.8240   0.2490   2.1962   4.3560
     5.4868   5.5933   6.9762   7.7006   9.8088  10.8456  11.1110  12.0854
    12.1824  12.4999  12.9051  13.4705  13.7608  14.1184  14.4839  15.2060
    15.5568  15.8080  16.4803  16.7333  17.2855  17.3234  18.3546  19.1295
    19.4135  19.9444

          k = 0.3963 0.4675 0.0000 ( 16724 PWs)   bands (ev):

   -71.6520 -45.1665 -45.1657 -45.1639 -45.1639 -45.1284 -45.1279 -45.1268
   -45.1266 -45.1097 -45.1074 -35.9511 -35.8639 -35.8320 -10.1756 -10.0025
    -3.2566  -2.7250  -1.5562  -0.8266  -0.7057   0.2649   2.1652   4.4064
     5.5389   5.5515   6.9197   7.6340   9.9484  10.8115  11.0210  12.0060
    12.1391  12.3106  12.8082  13.3838  13.7674  14.1337  14.5425  15.1792
    15.7012  15.8242  16.6542  16.7869  17.3859  17.5099  18.3972  19.1509
    19.4325  19.9994

          k = 0.4021 0.4576 0.0000 ( 16730 PWs)   bands (ev):

   -71.6520 -45.1666 -45.1658 -45.1639 -45.1638 -45.1283 -45.1279 -45.1269
   -45.1265 -45.1097 -45.1074 -35.9537 -35.8596 -35.8323 -10.1904 -10.0112
    -3.3124  -2.7092  -1.5601  -0.8178  -0.5802   0.2796   2.1354   4.4554
     5.5101   5.5965   6.8606   7.5675  10.0803  10.7769  10.9406  11.9272
    12.0687  12.1470  12.7120  13.3005  13.7590  14.1356  14.6250  15.1470
    15.8386  15.8639  16.8231  16.8474  17.4833  17.7034  18.4664  19.1351
    19.4758  20.0585

          k = 0.4079 0.4476 0.0000 ( 16726 PWs)   bands (ev):

   -71.6521 -45.1667 -45.1659 -45.1638 -45.1638 -45.1283 -45.1279 -45.1269
   -45.1265 -45.1097 -45.1074 -35.9561 -35.8554 -35.8326 -10.2053 -10.0199
    -3.3664  -2.6941  -1.5668  -0.8063  -0.4495   0.2929   2.1066   4.5024
     5.4695   5.6594   6.7996   7.5013  10.1923  10.7414  10.8811  11.8493
    11.9013  12.0822  12.6187  13.2226  13.7401  14.1271  14.7230  15.1115
    15.8557  16.0360  16.9163  16.9758  17.5858  17.9002  18.5624  19.0973
    19.5296  20.1210

          k = 0.4136 0.4377 0.0000 ( 16716 PWs)   bands (ev):

   -71.6521 -45.1668 -45.1660 -45.1638 -45.1637 -45.1283 -45.1279 -45.1269
   -45.1265 -45.1098 -45.1074 -35.9585 -35.8513 -35.8329 -10.2201 -10.0287
    -3.4182  -2.6798  -1.5753  -0.7922  -0.3151   0.3046   2.0790   4.5468
     5.4302   5.7274   6.7374   7.4358  10.2634  10.7043  10.8628  11.7134
    11.7736  12.0422  12.5302  13.1510  13.7152  14.1114  14.8282  15.0726
    15.8801  16.2104  16.9960  17.0988  17.7072  18.0948  18.6821  19.0508
    19.5858  20.1865

          k = 0.4194 0.4278 0.0000 ( 16710 PWs)   bands (ev):

   -71.6522 -45.1669 -45.1661 -45.1637 -45.1636 -45.1282 -45.1280 -45.1269
   -45.1264 -45.1098 -45.1075 -35.9607 -35.8473 -35.8331 -10.2347 -10.0373
    -3.4675  -2.6666  -1.5851  -0.7755  -0.1782   0.3145   2.0522   4.5882
     5.3926   5.8001   6.6750   7.3710  10.2739  10.6643  10.9045  11.5287
    11.7013  12.0064  12.4478  13.0857  13.6874  14.0913  14.9326  15.0299
    15.9165  16.3798  17.0897  17.1845  17.8580  18.2766  18.8210  19.0089
    19.6433  20.2544

          k = 0.4251 0.4178 0.0000 ( 16716 PWs)   bands (ev):

   -71.6523 -45.1670 -45.1662 -45.1637 -45.1636 -45.1282 -45.1280 -45.1270
   -45.1264 -45.1098 -45.1075 -35.9628 -35.8435 -35.8334 -10.2488 -10.0458
    -3.5142  -2.6544  -1.5957  -0.7565  -0.0400   0.3227   2.0260   4.6262
     5.3571   5.8770   6.6131   7.3074  10.2314  10.6191  10.9967  11.3526
    11.6352  11.9729  12.3725  13.0269  13.6588  14.0686  14.9831  15.0290
    15.9704  16.5361  17.2019  17.2365  18.0372  18.4223  18.9739  18.9955
    19.7042  20.3243

          k = 0.4309 0.4079 0.0000 ( 16716 PWs)   bands (ev):

   -71.6523 -45.1671 -45.1662 -45.1636 -45.1635 -45.1281 -45.1280 -45.1270
   -45.1264 -45.1098 -45.1075 -35.9648 -35.8399 -35.8337 -10.2625 -10.0539
    -3.5581  -2.6434  -1.6066  -0.7355   0.0985   0.3290   2.0000   4.6603
     5.3241   5.9572   6.5527   7.2450  10.1594  10.5651  11.1115  11.1904
    11.5805  11.9416  12.3049  12.9744  13.6306  14.0448  14.9319  15.1112
    16.0461  16.6724  17.2651  17.3357  18.2376  18.4943  19.0489  19.1361
    19.7720  20.3957

          k = 0.4367 0.3980 0.0000 ( 16720 PWs)   bands (ev):

   -71.6524 -45.1672 -45.1663 -45.1636 -45.1634 -45.1281 -45.1280 -45.1270
   -45.1263 -45.1098 -45.1075 -35.9666 -35.8364 -35.8340 -10.2755 -10.0617
    -3.5989  -2.6336  -1.6176  -0.7129   0.2364   0.3334   1.9737   4.6904
     5.2938   6.0398   6.4949   7.1842  10.0744  10.4971  11.0487  11.2189
    11.5513  11.9123  12.2454  12.9281  13.6036  14.0210  14.8762  15.1758
    16.1462  16.7855  17.2793  17.4901  18.4518  18.4870  19.1750  19.3026
    19.8511  20.4684

          k = 0.4424 0.3880 0.0000 ( 16712 PWs)   bands (ev):

   -71.6524 -45.1672 -45.1664 -45.1635 -45.1634 -45.1280 -45.1280 -45.1271
   -45.1263 -45.1098 -45.1075 -35.9683 -35.8342 -35.8332 -10.2877 -10.0691
    -3.6367  -2.6250  -1.6284  -0.6890   0.3362   0.3728   1.9466   4.7162
     5.2666   6.1226   6.4416   7.1255   9.9854  10.4097  10.9340  11.2784
    11.5789  11.8853  12.1946  12.8883  13.5783  13.9978  14.8161  15.2229
    16.2695  16.8769  17.2852  17.6571  18.4408  18.6751  19.3359  19.4677
    19.9458  20.5395

          k = 0.4482 0.3781 0.0000 ( 16722 PWs)   bands (ev):

   -71.6525 -45.1673 -45.1665 -45.1635 -45.1633 -45.1280 -45.1280 -45.1271
   -45.1263 -45.1098 -45.1075 -35.9699 -35.8344 -35.8302 -10.2991 -10.0760
    -3.6711  -2.6176  -1.6387  -0.6646   0.3373   0.5068   1.9181   4.7378
     5.2426   6.2007   6.3975   7.0693   9.8972  10.3026  10.8481  11.2770
    11.6699  11.8605  12.1538  12.8552  13.5551  13.9759  14.7516  15.2550
    16.4125  16.9503  17.2868  17.8191  18.3948  18.9036  19.5014  19.6230
    20.0598  20.5154

          k = 0.4539 0.3682 0.0000 ( 16720 PWs)   bands (ev):

   -71.6525 -45.1674 -45.1665 -45.1635 -45.1633 -45.1281 -45.1279 -45.1272
   -45.1262 -45.1098 -45.1075 -35.9713 -35.8346 -35.8275 -10.3096 -10.0824
    -3.7022  -2.6112  -1.6485  -0.6401   0.3371   0.6375   1.8874   4.7551
     5.2220   6.2539   6.3821   7.0162   9.8129  10.1815  10.7868  11.2488
    11.7819  11.8381  12.1274  12.8297  13.5341  13.9556  14.6830  15.2758
    16.5700  17.0093  17.2872  17.9392  18.3934  19.1342  19.6575  19.7506
    20.1924  20.3607

          k = 0.4597 0.3582 0.0000 ( 16702 PWs)   bands (ev):

   -71.6525 -45.1674 -45.1666 -45.1634 -45.1632 -45.1281 -45.1279 -45.1272
   -45.1262 -45.1098 -45.1075 -35.9725 -35.8348 -35.8251 -10.3190 -10.0881
    -3.7299  -2.6059  -1.6575  -0.6162   0.3357   0.7642   1.8540   4.7684
     5.2047   6.2499   6.4265   6.9667   9.7349  10.0553  10.7430  11.2149
    11.8182  11.8772  12.1277  12.8131  13.5154  13.9372  14.6108  15.2886
    16.7362  17.0564  17.2894  17.9738  18.4819  19.3604  19.7999  19.8080
    20.2562  20.3347

          k = 0.4654 0.3483 0.0000 ( 16694 PWs)   bands (ev):

   -71.6526 -45.1675 -45.1666 -45.1634 -45.1632 -45.1281 -45.1278 -45.1272
   -45.1262 -45.1098 -45.1075 -35.9736 -35.8350 -35.8230 -10.3273 -10.0931
    -3.7540  -2.6015  -1.6655  -0.5935   0.3335   0.8859   1.8169   4.7782
     5.1907   6.2204   6.4979   6.9217   9.6646   9.9316  10.7111  11.1822
    11.8007  11.9256  12.1728  12.8073  13.4992  13.9208  14.5362  15.2960
    16.9027  17.0935  17.2991  17.9453  18.6378  19.5447  19.7785  19.9294
    20.2570  20.4680

          k = 0.4712 0.3383 0.0000 ( 16698 PWs)   bands (ev):

   -71.6526 -45.1675 -45.1666 -45.1634 -45.1632 -45.1281 -45.1278 -45.1273
   -45.1262 -45.1098 -45.1075 -35.9745 -35.8351 -35.8211 -10.3345 -10.0975
    -3.7745  -2.5979  -1.6725  -0.5728   0.3307   1.0020   1.7756   4.7849
     5.1796   6.1892   6.5707   6.8819   9.6034   9.8164  10.6874  11.1531
    11.7858  11.9336  12.2479  12.8150  13.4854  13.9068  14.4609  15.2999
    17.0513  17.1216  17.3314  17.8973  18.8156  19.5019  19.8926  20.0455
    20.3144  20.5727

          k = 0.4770 0.3284 0.0000 ( 16698 PWs)   bands (ev):

   -71.6526 -45.1676 -45.1667 -45.1634 -45.1631 -45.1281 -45.1277 -45.1273
   -45.1262 -45.1098 -45.1075 -35.9753 -35.8353 -35.8196 -10.3404 -10.1011
    -3.7913  -2.5951  -1.6784  -0.5548   0.3278   1.1117   1.7293   4.7893
     5.1711   6.1616   6.6375   6.8480   9.5522   9.7146  10.6697  11.1288
    11.7736  11.9271  12.3202  12.8378  13.4741  13.8951  14.3876  15.3017
    17.1420  17.1458  17.4187  17.8495  18.9918  19.3340  20.1012  20.1420
    20.3747  20.6528

          k = 0.4827 0.3185 0.0000 ( 16686 PWs)   bands (ev):

   -71.6527 -45.1676 -45.1667 -45.1634 -45.1631 -45.1281 -45.1277 -45.1274
   -45.1262 -45.1098 -45.1075 -35.9758 -35.8354 -35.8185 -10.3450 -10.1039
    -3.8045  -2.5931  -1.6830  -0.5400   0.3251   1.2145   1.6773   4.7918
     5.1650   6.1392   6.6941   6.8208   9.5118   9.6303  10.6569  11.1096
    11.7640  11.9180  12.3744  12.8732  13.4653  13.8860  14.3205  15.3023
    17.1557  17.1825  17.5590  17.8093  19.1526  19.1532  20.2082  20.3081
    20.4231  20.7373

          k = 0.4885 0.3085 0.0000 ( 16698 PWs)   bands (ev):

   -71.6527 -45.1676 -45.1667 -45.1634 -45.1631 -45.1281 -45.1276 -45.1274
   -45.1261 -45.1098 -45.1075 -35.9763 -35.8354 -35.8176 -10.3484 -10.1060
    -3.8139  -2.5916  -1.6864  -0.5289   0.3228   1.3099   1.6190   4.7932
     5.1608   6.1228   6.7374   6.8009   9.4825   9.5671  10.6481  11.0958
    11.7571  11.9102  12.4086  12.9125  13.4591  13.8794  14.2652  15.3023
    17.1641  17.1950  17.7076  17.7798  18.9858  19.2853  20.2391  20.4503
    20.4984  20.8469

          k = 0.4942 0.2986 0.0000 ( 16704 PWs)   bands (ev):

   -71.6527 -45.1676 -45.1667 -45.1634 -45.1631 -45.1281 -45.1276 -45.1275
   -45.1261 -45.1098 -45.1075 -35.9765 -35.8355 -35.8171 -10.3504 -10.1072
    -3.8196  -2.5908  -1.6884  -0.5221   0.3214   1.3971   1.5544   4.7939
     5.1584   6.1129   6.7645   6.7887   9.4649   9.5278  10.6430  11.0875
    11.7530  11.9052  12.4265  12.9433  13.4553  13.8753  14.2280  15.3022
    17.1685  17.1994  17.7619  17.8265  18.8578  19.3750  20.2457  20.4723
    20.6313  20.9751

          k = 0.5000 0.2887 0.0000 ( 16708 PWs)   bands (ev):

   -71.6527 -45.1676 -45.1667 -45.1634 -45.1631 -45.1281 -45.1276 -45.1275
   -45.1261 -45.1098 -45.1075 -35.9766 -35.8355 -35.8169 -10.3511 -10.1076
    -3.8215  -2.5905  -1.6891  -0.5199   0.3209   1.4621   1.4970   4.7941
     5.1577   6.1095   6.7738   6.7846   9.4589   9.5145  10.6413  11.0847
    11.7516  11.9035  12.4320  12.9549  13.4540  13.8740  14.2149  15.3021
    17.1698  17.2005  17.7560  17.8743  18.8071  19.4071  20.2452  20.4788
    20.6831  21.0614

          k = 0.4898 0.2828 0.0000 ( 16698 PWs)   bands (ev):

   -71.6527 -45.1676 -45.1667 -45.1634 -45.1631 -45.1281 -45.1276 -45.1275
   -45.1261 -45.1098 -45.1075 -35.9764 -35.8355 -35.8169 -10.3538 -10.1088
    -3.8175  -2.5874  -1.6897  -0.5186   0.3215   1.4593   1.4959   4.7930
     5.1527   6.1077   6.7732   6.7957   9.4541   9.5133  10.6379  11.0799
    11.7540  11.8894  12.4600  12.9603  13.4596  13.8412  14.2529  15.3003
    17.1603  17.2043  17.7596  17.8712  18.8140  19.4073  20.2416  20.4654
    20.6720  21.0532

          k = 0.4796 0.2769 0.0000 ( 16704 PWs)   bands (ev):

   -71.6527 -45.1676 -45.1667 -45.1634 -45.1631 -45.1281 -45.1276 -45.1275
   -45.1261 -45.1098 -45.1075 -35.9758 -35.8357 -35.8167 -10.3620 -10.1124
    -3.8057  -2.5780  -1.6914  -0.5148   0.3233   1.4511   1.4928   4.7899
     5.1382   6.1020   6.7713   6.8285   9.4398   9.5097  10.6277  11.0644
    11.7613  11.8577  12.5338  12.9764  13.4761  13.7693  14.3410  15.2951
    17.1329  17.2158  17.7696  17.8616  18.8339  19.4075  20.2297  20.4249
    20.6412  21.0304

          k = 0.4694 0.2710 0.0000 ( 16700 PWs)   bands (ev):

   -71.6528 -45.1676 -45.1667 -45.1634 -45.1631 -45.1281 -45.1276 -45.1275
   -45.1261 -45.1098 -45.1076 -35.9747 -35.8359 -35.8165 -10.3755 -10.1184
    -3.7860  -2.5625  -1.6943  -0.5084   0.3264   1.4379   1.4875   4.7848
     5.1153   6.0926   6.7682   6.8817   9.4167   9.5040  10.6106  11.0358
    11.7741  11.8268  12.6354  13.0032  13.5021  13.6886  14.4499  15.2874
    17.0900  17.2353  17.7832  17.8456  18.8649  19.4071  20.2066  20.3580
    20.5962  20.9988

          k = 0.4592 0.2651 0.0000 ( 16696 PWs)   bands (ev):

   -71.6528 -45.1676 -45.1667 -45.1634 -45.1632 -45.1281 -45.1276 -45.1275
   -45.1261 -45.1099 -45.1076 -35.9732 -35.8362 -35.8161 -10.3942 -10.1267
    -3.7588  -2.5408  -1.6986  -0.4995   0.3308   1.4202   1.4801   4.7780
     5.0854   6.0793   6.7638   6.9530   9.3858   9.4965  10.5867  10.9922
    11.7928  11.8087  12.7505  13.0404  13.5360  13.6133  14.5679  15.2786
    17.0346  17.2631  17.7974  17.8229  18.9034  19.4049  20.1691  20.2693
    20.5412  20.9678

          k = 0.4490 0.2592 0.0000 ( 16702 PWs)   bands (ev):

   -71.6529 -45.1676 -45.1668 -45.1635 -45.1632 -45.1281 -45.1276 -45.1275
[...]
   -45.1260 -45.1103 -45.1081 -35.9212 -35.8471 -35.8037 -10.9857 -10.3992
    -2.9019  -1.9655  -1.7926  -0.1641   0.5274   1.1743   1.2498   4.5439
     4.6872   5.5784   6.5683   8.3204   8.8953   9.1287  10.1497  10.3679
    11.7145  12.3345  13.5810  13.7555  14.2331  14.5127  15.8200  16.0345
    16.2808  16.9294  17.2799  17.9616  18.0355  18.5228  19.3455  19.6952
    20.2396  20.6097

          k = 0.3163 0.1826 0.0000 ( 16673 PWs)   bands (ev):

   -71.6553 -45.1674 -45.1669 -45.1646 -45.1642 -45.1274 -45.1274 -45.1273
   -45.1260 -45.1104 -45.1081 -35.9153 -35.8484 -35.8023 -11.0462 -10.4280
    -2.8262  -1.9929  -1.7092  -0.1228   0.5556   1.1351   1.2702   4.5089
     4.6925   5.5220   6.5405   8.3090   8.9454   9.0594  10.1268  10.4204
    11.6709  12.3487  13.6538  13.7655  14.3503  14.4929  15.9101  16.1421
    16.3208  16.8297  17.1345  17.8517  18.0637  18.5439  19.3542  19.7056
    20.1905  20.6849

          k = 0.3061 0.1767 0.0000 ( 16661 PWs)   bands (ev):

   -71.6556 -45.1674 -45.1670 -45.1647 -45.1644 -45.1273 -45.1273 -45.1273
   -45.1260 -45.1104 -45.1082 -35.9091 -35.8496 -35.8009 -11.1073 -10.4573
    -2.7595  -2.0122  -1.6240  -0.0797   0.5859   1.0942   1.2965   4.4766
     4.7006   5.4649   6.5107   8.2729   8.9862   9.0052  10.1152  10.4839
    11.6263  12.3516  13.7165  13.7843  14.4532  14.4643  15.9933  16.2093
    16.3997  16.7297  17.0315  17.6740  18.1839  18.5323  19.4121  19.7133
    20.1451  20.7681

          k = 0.2959 0.1708 0.0000 ( 16659 PWs)   bands (ev):

   -71.6558 -45.1674 -45.1670 -45.1648 -45.1645 -45.1273 -45.1273 -45.1273
   -45.1260 -45.1105 -45.1083 -35.9028 -35.8509 -35.7994 -11.1687 -10.4869
    -2.7073  -2.0178  -1.5373  -0.0347   0.6182   1.0517   1.3284   4.4473
     4.7118   5.4078   6.4787   8.2222   8.9103   9.0622  10.1157  10.5569
    11.5808  12.3433  13.7630  13.8117  14.4088  14.5725  16.0564  16.2006
    16.5257  16.6303  17.0093  17.5055  18.3182  18.4932  19.5123  19.7169
    20.1023  20.8586

          k = 0.2857 0.1650 0.0000 ( 16665 PWs)   bands (ev):

   -71.6561 -45.1673 -45.1670 -45.1649 -45.1646 -45.1273 -45.1272 -45.1272
   -45.1260 -45.1105 -45.1083 -35.8963 -35.8523 -35.7978 -11.2300 -10.5165
    -2.6753  -2.0037  -1.4495   0.0120   0.6527   1.0079   1.3654   4.4215
     4.7260   5.3512   6.4445   8.1631   8.8326   9.1082  10.1283  10.6383
    11.5343  12.3247  13.7872  13.8463  14.3743  14.6717  16.1026  16.1106
    16.5322  16.6920  17.0743  17.3502  18.4388  18.4616  19.6426  19.7168
    20.0613  20.9556

          k = 0.2755 0.1591 0.0000 ( 16653 PWs)   bands (ev):

   -71.6564 -45.1673 -45.1670 -45.1651 -45.1647 -45.1273 -45.1272 -45.1271
   -45.1260 -45.1106 -45.1084 -35.8898 -35.8536 -35.7963 -11.2911 -10.5462
    -2.6665  -1.9669  -1.3612   0.0602   0.6891   0.9629   1.4066   4.3995
     4.7431   5.2955   6.4083   8.0992   8.7541   9.1393  10.1515  10.7270
    11.4864  12.2973  13.7863  13.8850  14.3591  14.7579  15.9734  16.1420
    16.4361  16.8862  17.1926  17.2125  18.3813  18.6070  19.7163  19.7926
    20.0210  21.0586

          k = 0.2653 0.1532 0.0000 ( 16657 PWs)   bands (ev):

   -71.6567 -45.1673 -45.1670 -45.1652 -45.1648 -45.1272 -45.1272 -45.1270
   -45.1260 -45.1106 -45.1085 -35.8832 -35.8550 -35.7947 -11.3517 -10.5758
    -2.6793  -1.9087  -1.2725   0.1100   0.7273   0.9171   1.4514   4.3819
     4.7632   5.2415   6.3699   8.0328   8.6753   9.1543  10.1822  10.8217
    11.4373  12.2629  13.7642  13.9237  14.3643  14.8262  15.8206  16.1821
    16.3427  17.0973  17.0992  17.3306  18.3324  18.7442  19.7230  19.9555
    19.9809  21.1671

          k = 0.2551 0.1473 0.0000 ( 16617 PWs)   bands (ev):

   -71.6569 -45.1673 -45.1671 -45.1653 -45.1650 -45.1272 -45.1272 -45.1270
   -45.1259 -45.1107 -45.1085 -35.8765 -35.8564 -35.7931 -11.4116 -10.6051
    -2.7091  -1.8335  -1.1841   0.1611   0.7671   0.8706   1.4990   4.3690
     4.7860   5.1896   6.3295   7.9651   8.5970   9.1542  10.2157  10.9211
    11.3879  12.2233  13.7303  13.9563  14.3846  14.8714  15.6717  16.2273
    16.2526  17.0101  17.3256  17.4627  18.3074  18.8580  19.7510  19.9400
    20.1264  21.2808

          k = 0.2449 0.1414 0.0000 ( 16615 PWs)   bands (ev):

   -71.6572 -45.1673 -45.1671 -45.1655 -45.1651 -45.1272 -45.1272 -45.1269
   -45.1259 -45.1108 -45.1086 -35.8698 -35.8578 -35.7916 -11.4706 -10.6340
    -2.7506  -1.7463  -1.0961   0.2135   0.8083   0.8238   1.5485   4.3614
     4.8115   5.1405   6.2872   7.8970   8.5196   9.1406  10.2463  11.0236
    11.3404  12.1806  13.6932  13.9752  14.4133  14.8891  15.5408  16.1662
    16.2798  16.9554  17.5617  17.5633  18.3271  18.9307  19.8178  19.8980
    20.3013  21.3992

          k = 0.2347 0.1355 0.0000 ( 16631 PWs)   bands (ev):

   -71.6575 -45.1672 -45.1671 -45.1656 -45.1652 -45.1272 -45.1271 -45.1268
   -45.1259 -45.1108 -45.1087 -35.8631 -35.8592 -35.7900 -11.5285 -10.6625
    -2.8000  -1.6510  -1.0090   0.2669   0.7768   0.8505   1.5990   4.3595
     4.8395   5.0949   6.2429   7.8291   8.4434   9.1156  10.2677  11.1272
    11.2985  12.1368  13.6585  13.9717  14.4463  14.8768  15.4400  16.0838
    16.3410  16.9359  17.6124  17.8042  18.4097  18.9541  19.8543  19.9330
    20.4764  21.4209

          k = 0.2245 0.1296 0.0000 ( 16629 PWs)   bands (ev):

   -71.6578 -45.1672 -45.1671 -45.1657 -45.1653 -45.1271 -45.1271 -45.1267
   -45.1259 -45.1109 -45.1087 -35.8605 -35.8564 -35.7884 -11.5850 -10.6905
    -2.8541  -1.5504  -0.9231   0.3213   0.7299   0.8934   1.6496   4.3637
     4.8697   5.0532   6.1968   7.7617   8.3688   9.0807  10.2738  11.2292
    11.2674  12.0940  13.6285  13.9388  14.4812  14.8350  15.3788  16.0059
    16.4112  16.9511  17.6122  18.0486  18.5515  18.9376  19.8086  20.0905
    20.6456  21.4221

          k = 0.2143 0.1237 0.0000 ( 16629 PWs)   bands (ev):

   -71.6580 -45.1672 -45.1672 -45.1658 -45.1654 -45.1271 -45.1271 -45.1267
   -45.1259 -45.1109 -45.1088 -35.8619 -35.8499 -35.7869 -11.6402 -10.7178
    -2.9111  -1.4464  -0.8385   0.3764   0.6833   0.9363   1.6996   4.3744
     4.9020   5.0162   6.1492   7.6954   8.2962   9.0372  10.2597  11.2522
    11.3260  12.0547  13.6034  13.8750  14.5168  14.7674  15.3613  15.9326
    16.4906  16.9975  17.5808  18.2832  18.7336  18.9051  19.7608  20.2763
    20.7974  21.4123

          k = 0.2041 0.1178 0.0000 ( 16617 PWs)   bands (ev):

   -71.6583 -45.1672 -45.1672 -45.1660 -45.1656 -45.1271 -45.1271 -45.1266
   -45.1259 -45.1110 -45.1088 -35.8632 -35.8433 -35.7853 -11.6937 -10.7443
    -2.9694  -1.3404  -0.7556   0.4320   0.6374   0.9788   1.7482   4.3919
     4.9361   4.9845   6.1001   7.6301   8.2256   8.9860  10.2235  11.2562
    11.4121  12.0221  13.5820  13.7862  14.5527  14.6791  15.3847  15.8641
    16.5789  17.0699  17.5338  18.4679  18.9076  18.9392  19.7109  20.4766
    20.9043  21.3900

          k = 0.1939 0.1119 0.0000 ( 16621 PWs)   bands (ev):

   -71.6586 -45.1672 -45.1672 -45.1661 -45.1657 -45.1271 -45.1271 -45.1265
   -45.1259 -45.1110 -45.1089 -35.8645 -35.8369 -35.7838 -11.7455 -10.7701
    -3.0280  -1.2335  -0.6746   0.4880   0.5922   1.0203   1.7946   4.4165
     4.9586   4.9717   6.0498   7.5661   8.1575   8.9275  10.1669  11.2794
    11.4806  11.9994  13.5628  13.6839  14.5758  14.5882  15.4417  15.8005
    16.6755  17.1626  17.4804  18.5202  19.0350  19.1576  19.6589  20.6756
    20.9109  21.3600

          k = 0.1837 0.1060 0.0000 ( 16617 PWs)   bands (ev):

   -71.6588 -45.1672 -45.1671 -45.1662 -45.1658 -45.1271 -45.1270 -45.1264
   -45.1258 -45.1111 -45.1090 -35.8658 -35.8307 -35.7824 -11.7954 -10.7949
    -3.0861  -1.1264  -0.5955   0.5440   0.5481   1.0601   1.8382   4.4483
     4.9390   5.0085   5.9985   7.5035   8.0918   8.8622  10.0945  11.3197
    11.5249  11.9878  13.5443  13.5822  14.4626  14.6226  15.5240  15.7418
    16.7796  17.2708  17.4256  18.4678  19.2646  19.3801  19.6052  20.7921
    20.8438  21.3453

          k = 0.1735 0.1002 0.0000 ( 16625 PWs)   bands (ev):

   -71.6591 -45.1672 -45.1671 -45.1663 -45.1659 -45.1270 -45.1270 -45.1264
   -45.1258 -45.1111 -45.1090 -35.8670 -35.8246 -35.7809 -11.8432 -10.8188
    -3.1432  -1.0199  -0.5186   0.5053   0.5999   1.0975   1.8786   4.4871
     4.9262   5.0463   5.9466   7.4423   8.0288   8.7903  10.0119  11.3738
    11.5424  11.9821  13.4958  13.5252  14.3436  14.6548  15.6247  15.6881
    16.8897  17.3724  17.3903  18.3813  19.5295  19.5499  19.5937  20.6113
    20.9218  21.4016

          k = 0.1633 0.0943 0.0000 ( 16655 PWs)   bands (ev):

   -71.6593 -45.1673 -45.1671 -45.1664 -45.1660 -45.1270 -45.1270 -45.1263
   -45.1258 -45.1112 -45.1091 -35.8682 -35.8187 -35.7796 -11.8890 -10.8416
    -3.1987  -0.9147  -0.4439   0.4638   0.6555   1.1319   1.9155   4.5328
     4.9206   5.0846   5.8942   7.3824   7.9687   8.7121   9.9242  11.4388
    11.5374  11.9691  13.4389  13.5047  14.2220  14.6836  15.6392  15.7383
    17.0033  17.3231  17.5179  18.2865  19.4936  19.7616  19.8064  20.4509
    20.8933  21.5420

          k = 0.1531 0.0884 0.0000 ( 16649 PWs)   bands (ev):

   -71.6596 -45.1673 -45.1671 -45.1666 -45.1661 -45.1270 -45.1270 -45.1262
   -45.1258 -45.1112 -45.1091 -35.8694 -35.8130 -35.7782 -11.9324 -10.8634
    -3.2522  -0.8113  -0.3716   0.4240   0.7103   1.1628   1.9487   4.5852
     4.9222   5.1232   5.8418   7.3237   7.9114   8.6281   9.8358  11.5122
    11.5172  11.9347  13.4223  13.4823  14.1003  14.7077  15.5951  15.8604
    17.1160  17.2798  17.6511  18.1954  19.4368  19.7830  20.0844  20.4297
    20.8172  21.7037

          k = 0.1429 0.0825 0.0000 ( 16641 PWs)   bands (ev):

   -71.6598 -45.1673 -45.1671 -45.1667 -45.1662 -45.1270 -45.1270 -45.1262
   -45.1258 -45.1113 -45.1092 -35.8705 -35.8076 -35.7770 -11.9736 -10.8840
    -3.3035  -0.7103  -0.3016   0.3860   0.7641   1.1895   1.9780   4.6436
     4.9311   5.1618   5.7898   7.2662   7.8572   8.5389   9.7497  11.4877
    11.5922  11.8718  13.4499  13.4579  13.9805  14.7258  15.5555  15.9867
    17.2201  17.2446  17.7880  18.1189  19.3799  19.6318  20.3406  20.5800
    20.7476  21.8434

          k = 0.1327 0.0766 0.0000 ( 16629 PWs)   bands (ev):

   -71.6600 -45.1673 -45.1670 -45.1668 -45.1663 -45.1270 -45.1269 -45.1261
   -45.1258 -45.1113 -45.1092 -35.8716 -35.8025 -35.7758 -12.0122 -10.9033
    -3.3521  -0.6123  -0.2341   0.3499   0.8167   1.2118   2.0037   4.7074
     4.9472   5.1999   5.7384   7.2097   7.8062   8.4457   9.6681  11.4522
    11.6773  11.7831  13.4316  13.5181  13.8641  14.7369  15.5203  16.1125
    17.2208  17.3022  17.9269  18.0718  19.3235  19.4131  20.4623  20.7973
    20.8083  21.9489

          k = 0.1224 0.0707 0.0000 ( 16627 PWs)   bands (ev):

   -71.6602 -45.1673 -45.1670 -45.1669 -45.1664 -45.1269 -45.1269 -45.1261
   -45.1258 -45.1114 -45.1093 -35.8725 -35.7976 -35.7746 -12.0484 -10.9215
    -3.3979  -0.5180  -0.1692   0.3160   0.8675   1.2295   2.0258   4.7760
     4.9700   5.2371   5.6882   7.1538   7.7583   8.3499   9.5924  11.4114
    11.6777  11.7665  13.4036  13.6189  13.7523  14.7404  15.4893  16.2323
    17.2126  17.3454  18.0663  18.0716  19.1762  19.2683  20.4080  21.0277
    21.0436  22.0306

          k = 0.1122 0.0648 0.0000 ( 16629 PWs)   bands (ev):

   -71.6604 -45.1673 -45.1670 -45.1669 -45.1665 -45.1269 -45.1269 -45.1260
   -45.1258 -45.1114 -45.1093 -35.8735 -35.7930 -35.7736 -12.0819 -10.9383
    -3.4406  -0.4278  -0.1071   0.2842   0.9163   1.2424   2.0446   4.8483
     4.9989   5.2733   5.6396   7.0984   7.7137   8.2533   9.5232  11.3615
    11.5686  11.8588  13.3742  13.6463  13.7444  14.7357  15.4623  16.3389
    17.2254  17.3418  18.1262  18.2050  18.9365  19.2147  20.3169  21.2386
    21.3106  22.1013

          k = 0.1020 0.0589 0.0000 ( 16623 PWs)   bands (ev):

   -71.6606 -45.1674 -45.1670 -45.1670 -45.1666 -45.1269 -45.1269 -45.1260
   -45.1258 -45.1114 -45.1094 -35.8743 -35.7888 -35.7726 -12.1128 -10.9538
    -3.4801  -0.3426  -0.0479   0.2549   0.9627   1.2506   2.0604   4.9235
     5.0329   5.3078   5.5931   7.0432   7.6725   8.1578   9.4609  11.2927
    11.4741  11.9532  13.3436  13.5468  13.8878  14.7231  15.4389  16.4245
    17.2643  17.3020  18.2244  18.3416  18.7013  19.1635  20.2240  21.3647
    21.5613  22.0407

          k = 0.0918 0.0530 0.0000 ( 16625 PWs)   bands (ev):

   -71.6608 -45.1674 -45.1671 -45.1670 -45.1666 -45.1269 -45.1269 -45.1259
   -45.1258 -45.1115 -45.1094 -35.8751 -35.7849 -35.7717 -12.1409 -10.9679
    -3.5163  -0.2628   0.0081   0.2280   1.0063   1.2546   2.0735   5.0005
     5.0710   5.3405   5.5490   6.9879   7.6347   8.0655   9.4054  11.1971
    11.4077  12.0490  13.3121  13.4546  14.0442  14.7029  15.4189  16.4842
    17.2431  17.3296  18.3481  18.4749  18.4775  19.1151  20.1367  21.3180
    21.7637  22.1314

          k = 0.0816 0.0471 0.0000 ( 16629 PWs)   bands (ev):

   -71.6609 -45.1674 -45.1672 -45.1670 -45.1667 -45.1269 -45.1269 -45.1259
   -45.1258 -45.1115 -45.1094 -35.8758 -35.7813 -35.7708 -12.1662 -10.9806
    -3.5490  -0.1892   0.0606   0.2036   1.0467   1.2546   2.0842   5.0780
     5.1117   5.3709   5.5079   6.9324   7.6004   7.9783   9.3565  11.0859
    11.3632  12.1452  13.2797  13.3704  14.2099  14.6761  15.4019  16.5183
    17.1775  17.4102  18.2773  18.4836  18.6032  19.0702  20.0576  21.1460
    21.9004  22.3368

          k = 0.0714 0.0412 0.0000 ( 16623 PWs)   bands (ev):

   -71.6610 -45.1674 -45.1672 -45.1670 -45.1668 -45.1269 -45.1269 -45.1258
   -45.1257 -45.1115 -45.1095 -35.8765 -35.7782 -35.7701 -12.1887 -10.9919
    -3.5781  -0.1223   0.1091   0.1820   1.0836   1.2515   2.0928   5.1535
     5.1547   5.3986   5.4704   6.8770   7.5697   7.8981   9.3140  10.9731
    11.3305  12.2406  13.2465  13.2948  14.3819  14.6440  15.3878  16.5314
    17.1123  17.4731  18.1298  18.6215  18.7249  19.0292  19.9875  20.9277
    21.9889  22.5826

          k = 0.0612 0.0353 0.0000 ( 16623 PWs)   bands (ev):

   -71.6611 -45.1674 -45.1673 -45.1670 -45.1668 -45.1269 -45.1269 -45.1258
   -45.1257 -45.1115 -45.1095 -35.8770 -35.7754 -35.7695 -12.2082 -11.0017
    -3.6034  -0.0628   0.1533   0.1630   1.1164   1.2459   2.0997   5.1947
     5.2291   5.4234   5.4367   6.8222   7.5427   7.8264   9.2776  10.8665
    11.3045  12.3342  13.2125  13.2282  14.5572  14.6085  15.3763  16.5284
    17.0518  17.4595  18.0899  18.7552  18.8381  18.9926  19.9272  20.6935
    22.0535  22.6878

          k = 0.0510 0.0295 0.0000 ( 16615 PWs)   bands (ev):

   -71.6612 -45.1674 -45.1673 -45.1670 -45.1668 -45.1269 -45.1269 -45.1258
   -45.1257 -45.1116 -45.1095 -35.8775 -35.7731 -35.7689 -12.2248 -11.0101
    -3.6250  -0.0114   0.1469   0.1924   1.1449   1.2388   2.1050   5.2336
     5.2993   5.4074   5.4450   6.7691   7.5196   7.7646   9.2471  10.7707
    11.2835  12.4242  13.1710  13.1777  14.5718  14.7330  15.3670  16.5124
    16.9982  17.3560  18.1695  18.8792  18.9406  18.9609  19.8767  20.4549
    22.1079  22.5765

          k = 0.0408 0.0236 0.0000 ( 16619 PWs)   bands (ev):

   -71.6613 -45.1674 -45.1674 -45.1670 -45.1669 -45.1268 -45.1268 -45.1258
   -45.1257 -45.1116 -45.1095 -35.8779 -35.7711 -35.7685 -12.2385 -11.0169
    -3.6428   0.0316   0.1336   0.2259   1.1688   1.2311   2.1091   5.2684
     5.3630   5.3828   5.4630   6.7195   7.5003   7.7134   9.2223  10.6886
    11.2667  12.5088  13.1238  13.1423  14.5364  14.9050  15.3597  16.4835
    16.9532  17.2186  18.3141  18.9344  18.9888  19.0298  19.8360  20.2181
    22.1579  22.4789

          k = 0.0306 0.0177 0.0000 ( 16607 PWs)   bands (ev):

   -71.6614 -45.1674 -45.1674 -45.1670 -45.1669 -45.1268 -45.1268 -45.1257
   -45.1257 -45.1116 -45.1095 -35.8782 -35.7696 -35.7681 -12.2491 -11.0223
    -3.6567   0.0655   0.1233   0.2529   1.1876   1.2237   2.1120   5.2975
     5.3633   5.4175   5.4773   6.6759   7.4852   7.6733   9.2032  10.6225
    11.2539  12.5852  13.0867  13.1071  14.5050  15.0669  15.3543  16.4406
    16.9174  17.0897  18.4851  18.9134  19.0794  19.1031  19.8049  19.9886
    22.2048  22.3986

          k = 0.0204 0.0118 0.0000 ( 16599 PWs)   bands (ev):

   -71.6614 -45.1674 -45.1674 -45.1670 -45.1669 -45.1268 -45.1268 -45.1257
   -45.1257 -45.1116 -45.1096 -35.8784 -35.7685 -35.7679 -12.2567 -11.0261
    -3.6666   0.0901   0.1158   0.2729   1.2013   1.2177   2.1140   5.3194
     5.3491   5.4597   5.4876   6.6412   7.4743   7.6446   9.1896  10.5740
    11.2447  12.6492  13.0601  13.0742  14.4803  15.2078  15.3506  16.3862
    16.8916  16.9914  18.6611  18.8982  19.1472  19.1578  19.7751  19.7832
    22.2465  22.3386

          k = 0.0102 0.0059 0.0000 ( 16581 PWs)   bands (ev):

   -71.6615 -45.1674 -45.1674 -45.1669 -45.1669 -45.1268 -45.1268 -45.1257
   -45.1257 -45.1116 -45.1096 -35.8786 -35.7679 -35.7677 -12.2613 -11.0284
    -3.6725   0.1049   0.1114   0.2851   1.2096   1.2137   2.1152   5.3330
     5.3405   5.4867   5.4939   6.6188   7.4677   7.6274   9.1814  10.5445
    11.2393  12.6942  13.0440  13.0487  14.4645  15.3094  15.3484  16.3349
    16.8760  16.9326  18.8153  18.8891  19.1891  19.1918  19.5996  19.7705
    22.2772  22.3014

          k = 0.0000 0.0000 0.0000 ( 16581 PWs)   bands (ev):

   -71.6615 -45.1674 -45.1674 -45.1669 -45.1669 -45.1268 -45.1268 -45.1257
   -45.1257 -45.1116 -45.1096 -35.8786 -35.7677 -35.7677 -12.2628 -11.0292
    -3.6745   0.1099   0.1099   0.2892   1.2123   1.2123   2.1155   5.3377
     5.3377   5.4960   5.4960   6.6110   7.4654   7.6217   9.1787  10.5345
    11.2375  12.7109  13.0386  13.0386  14.4590  15.3477  15.3477  16.3127
    16.8708  16.9135  18.8860  18.8860  19.2033  19.2033  19.5220  19.7663
    22.2888  22.2888

     Writing all to output data dir ./WSe2.save/
 
     init_run     :      0.11s CPU      0.22s WALL (       1 calls)
     electrons    :     53.04s CPU     53.50s WALL (       1 calls)

     Called by init_run:
     wfcinit      :      0.00s CPU      0.00s WALL (       1 calls)
     wfcinit:wfcr :      0.92s CPU      0.96s WALL (      64 calls)
     potinit      :      0.01s CPU      0.02s WALL (       1 calls)
     hinit0       :      0.07s CPU      0.17s WALL (       1 calls)

     Called by electrons:
     c_bands      :     53.03s CPU     53.49s WALL (       1 calls)
     v_of_rho     :      0.00s CPU      0.01s WALL (       1 calls)
     v_h          :      0.00s CPU      0.00s WALL (       1 calls)
     v_xc         :      0.00s CPU      0.01s WALL (       1 calls)

     Called by c_bands:
     init_us_2    :      0.01s CPU      0.01s WALL (      64 calls)
     init_us_2:cp :      0.01s CPU      0.01s WALL (      64 calls)
     cegterg      :     48.87s CPU     49.29s WALL (     258 calls)

     Called by sum_band:

     Called by *egterg:
     cdiaghg      :     18.21s CPU     18.30s WALL (    4497 calls)
     cegterg:over :      4.41s CPU      4.46s WALL (    4433 calls)
     cegterg:upda :      2.86s CPU      2.87s WALL (    4433 calls)
     cegterg:last :      3.19s CPU      3.20s WALL (    2351 calls)
     cdiaghg:chol :      0.76s CPU      0.77s WALL (    4497 calls)
     cdiaghg:inve :      0.12s CPU      0.13s WALL (    4497 calls)
     cdiaghg:para :      1.26s CPU      1.27s WALL (    8994 calls)
     h_psi        :     20.38s CPU     20.68s WALL (    4755 calls)
     g_psi        :      0.08s CPU      0.08s WALL (    4433 calls)

     Called by h_psi:
     h_psi:calbec :      0.88s CPU      0.90s WALL (    4755 calls)
     vloc_psi     :     19.02s CPU     19.29s WALL (    4755 calls)
     add_vuspsi   :      0.41s CPU      0.42s WALL (    4755 calls)

     General routines
     calbec       :      0.87s CPU      0.89s WALL (    4755 calls)
     fft          :      0.06s CPU      0.15s WALL (      11 calls)
     fftw         :     18.07s CPU     18.33s WALL (  249070 calls)
 
     Parallel routines
 
     PWSCF        :     55.54s CPU   1m 0.33s WALL

 
   This run was terminated on:  11: 2: 2   3May2023            

=------------------------------------------------------------------------------=
   JOB DONE.
=------------------------------------------------------------------------------=
