
     Program PWSCF v.7.0 starts on  3May2023 at 10:58:47 

     This program is part of the open-source Quantum ESPRESSO suite
     for quantum simulation of materials; please cite
         "P. Giannozzi et al., J. Phys.:Condens. Matter 21 395502 (2009);
         "P. Giannozzi et al., J. Phys.:Condens. Matter 29 465901 (2017);
         "P. Giannozzi et al., J. Chem. Phys. 152 154105 (2020);
          URL http://www.quantum-espresso.org", 
     in publications or presentations arising from this work. More details at
     http://www.quantum-espresso.org/quote

     Parallel version (MPI), running on   144 processors

     MPI processes distributed on     2 nodes
     K-points division:     npool     =       2
     R & G space division:  proc/nbgrp/npool/nimage =      72
     212159 MiB available memory on the printing compute node when the environment starts
 
     Waiting for input...
     Reading input from standard input

     Current dimensions of program PWSCF are:
     Max number of different atomic species (ntypx) = 10
     Max number of k-points (npk) =  40000
     Max angular momentum in pseudopotentials (lmaxx) =  4

     Atomic positions and unit cell read from directory:
     ./WS2.save/
     Atomic positions from file used, from input discarded
 
     Message from routine setup:
     using ibrav=0 with symmetry is DISCOURAGED, use correct ibrav instead

     Subspace diagonalization in iterative solution of the eigenvalue problem:
     one sub-group per band group will be used
     scalapack distributed-memory algorithm (size of sub-group:  8*  8 procs)

 
     Parallelization info
     --------------------
     sticks:   dense  smooth     PW     G-vecs:    dense   smooth      PW
     Min          13      13      3                 1991     1991     281
     Max          14      14      4                 2036     2036     322
     Sum        1003    1003    283               145281   145281   22155
 
     Using Slab Decomposition
 


     bravais-lattice index     =            0
     lattice parameter (alat)  =       6.0206  a.u.
     unit-cell volume          =    1076.4039 (a.u.)^3
     number of atoms/cell      =            3
     number of atomic types    =            2
     number of electrons       =        26.00
     number of Kohn-Sham states=           50
     kinetic-energy cutoff     =     100.0000  Ry
     charge density cutoff     =     400.0000  Ry
     Exchange-correlation= PBE
                           (   1   4   3   4   0   0   0)

     celldm(1)=   6.020565  celldm(2)=   0.000000  celldm(3)=   0.000000
     celldm(4)=   0.000000  celldm(5)=   0.000000  celldm(6)=   0.000000

     crystal axes: (cart. coord. in units of alat)
               a(1) = (   1.000000   0.000000   0.000000 )  
               a(2) = (  -0.500000   0.866025   0.000000 )  
               a(3) = (   0.000000   0.000000   5.695512 )  

     reciprocal axes: (cart. coord. in units 2 pi/alat)
               b(1) = (  1.000000  0.577350  0.000000 )  
               b(2) = (  0.000000  1.154701  0.000000 )  
               b(3) = (  0.000000  0.000000  0.175577 )  


     PseudoPot. # 1 for S  read from file:
     /u/danielhg/pseudo/S-nc-sr-pbe-dojo.UPF
     MD5 check sum: 6027e7704d67ae28863b2247926ce6f3
     Pseudo is Norm-conserving + core correction, Zval =  6.0
     Generated using ONCVPSP code by D. R. Hamann
     Using radial grid of 1146 points,  6 beta functions with: 
                l(1) =   0
                l(2) =   0
                l(3) =   1
                l(4) =   1
                l(5) =   2
                l(6) =   2

     PseudoPot. # 2 for W  read from file:
     /u/danielhg/pseudo/W-nc-sr-pbe-dojo.UPF
     MD5 check sum: cb94e439a9e4ea809831d6e90c63864e
     Pseudo is Norm-conserving + core correction, Zval = 14.0
     Generated using ONCVPSP code by D. R. Hamann
     Using radial grid of 1396 points,  8 beta functions with: 
                l(1) =   0
                l(2) =   0
                l(3) =   1
                l(4) =   1
                l(5) =   2
                l(6) =   2
                l(7) =   3
                l(8) =   3

     atomic species   valence    mass     pseudopotential
        S              6.00    32.06500     S ( 1.00)
        W             14.00   183.84000     W ( 1.00)

     12 Sym. Ops. (no inversion) found


                                    s                        frac. trans.

      isym =  1     identity                                     

 cryst.   s( 1) = (     1          0          0      )
                  (     0          1          0      )
                  (     0          0          1      )

 cart.    s( 1) = (  1.0000000 -0.0000000  0.0000000 )
                  (  0.0000000  1.0000000  0.0000000 )
                  (  0.0000000  0.0000000  1.0000000 )


      isym =  2     180 deg rotation - cart. axis [0,1,0]        

 cryst.   s( 2) = (    -1          0          0      )
                  (     1          1          0      )
                  (     0          0         -1      )

 cart.    s( 2) = ( -1.0000000  0.0000000  0.0000000 )
                  (  0.0000000  1.0000000  0.0000000 )
                  (  0.0000000  0.0000000 -1.0000000 )


      isym =  3     120 deg rotation - cryst. axis [0,0,1]       

 cryst.   s( 3) = (     0          1          0      )
                  (    -1         -1          0      )
                  (     0          0          1      )

 cart.    s( 3) = ( -0.5000000 -0.8660254  0.0000000 )
                  (  0.8660254 -0.5000000  0.0000000 )
                  (  0.0000000  0.0000000  1.0000000 )


      isym =  4     120 deg rotation - cryst. axis [0,0,-1]      

 cryst.   s( 4) = (    -1         -1          0      )
                  (     1          0          0      )
                  (     0          0          1      )

 cart.    s( 4) = ( -0.5000000  0.8660254  0.0000000 )
                  ( -0.8660254 -0.5000000  0.0000000 )
                  (  0.0000000  0.0000000  1.0000000 )


      isym =  5     180 deg rotation - cryst. axis [1,-1,0]      

 cryst.   s( 5) = (     0         -1          0      )
                  (    -1          0          0      )
                  (     0          0         -1      )

 cart.    s( 5) = (  0.5000000 -0.8660254  0.0000000 )
                  ( -0.8660254 -0.5000000  0.0000000 )
                  (  0.0000000  0.0000000 -1.0000000 )


      isym =  6     180 deg rotation - cryst. axis [2,1,0]       

 cryst.   s( 6) = (     1          1          0      )
                  (     0         -1          0      )
                  (     0          0         -1      )

 cart.    s( 6) = (  0.5000000  0.8660254  0.0000000 )
                  (  0.8660254 -0.5000000  0.0000000 )
                  (  0.0000000  0.0000000 -1.0000000 )


      isym =  7     inv. 180 deg rotation - cart. axis [0,0,1]   

 cryst.   s( 7) = (     1          0          0      )
                  (     0          1          0      )
                  (     0          0         -1      )

 cart.    s( 7) = (  1.0000000 -0.0000000  0.0000000 )
                  (  0.0000000  1.0000000  0.0000000 )
                  (  0.0000000  0.0000000 -1.0000000 )


      isym =  8     inv. 180 deg rotation - cart. axis [1,0,0]   

 cryst.   s( 8) = (    -1          0          0      )
                  (     1          1          0      )
                  (     0          0          1      )

 cart.    s( 8) = ( -1.0000000  0.0000000  0.0000000 )
                  (  0.0000000  1.0000000  0.0000000 )
                  (  0.0000000  0.0000000  1.0000000 )


      isym =  9     inv.  60 deg rotation - cryst. axis [0,0,1]  

 cryst.   s( 9) = (    -1         -1          0      )
                  (     1          0          0      )
                  (     0          0         -1      )

 cart.    s( 9) = ( -0.5000000  0.8660254  0.0000000 )
                  ( -0.8660254 -0.5000000  0.0000000 )
                  (  0.0000000  0.0000000 -1.0000000 )


      isym = 10     inv.  60 deg rotation - cryst. axis [0,0,-1] 

 cryst.   s(10) = (     0          1          0      )
                  (    -1         -1          0      )
                  (     0          0         -1      )

 cart.    s(10) = ( -0.5000000 -0.8660254  0.0000000 )
                  (  0.8660254 -0.5000000  0.0000000 )
                  (  0.0000000  0.0000000 -1.0000000 )


      isym = 11     inv. 180 deg rotation - cryst. axis [0,1,0]  

 cryst.   s(11) = (     1          1          0      )
                  (     0         -1          0      )
                  (     0          0          1      )

 cart.    s(11) = (  0.5000000  0.8660254  0.0000000 )
                  (  0.8660254 -0.5000000  0.0000000 )
                  (  0.0000000  0.0000000  1.0000000 )


      isym = 12     inv. 180 deg rotation - cryst. axis [1,1,0]  

 cryst.   s(12) = (     0         -1          0      )
                  (    -1          0          0      )
                  (     0          0          1      )

 cart.    s(12) = (  0.5000000 -0.8660254  0.0000000 )
                  ( -0.8660254 -0.5000000  0.0000000 )
                  (  0.0000000  0.0000000  1.0000000 )


   Cartesian axes

     site n.     atom                  positions (alat units)
         1           W   tau(   1) = (   0.0000000   0.0000000   2.8477562  )
         2           S   tau(   2) = (   0.5000000   0.2886751   3.3414236  )
         3           S   tau(   3) = (   0.5000000   0.2886751   2.3540889  )

   Crystallographic axes

     site n.     atom                  positions (cryst. coord.)
         1           W   tau(   1) = (  0.0000000  0.0000000  0.5000000  )
         2           S   tau(   2) = (  0.6666667  0.3333333  0.5866765  )
         3           S   tau(   3) = (  0.6666667  0.3333333  0.4133235  )

     number of k points=   128
                       cart. coord. in units 2pi/alat
        k(    1) = (   0.0000000   0.0000000   0.0000000), wk =   0.0156250
        k(    2) = (   0.0067959   0.0117709   0.0000000), wk =   0.0156250
        k(    3) = (   0.0135918   0.0235418   0.0000000), wk =   0.0156250
        k(    4) = (   0.0203878   0.0353126   0.0000000), wk =   0.0156250
        k(    5) = (   0.0271837   0.0470835   0.0000000), wk =   0.0156250
        k(    6) = (   0.0339796   0.0588544   0.0000000), wk =   0.0156250
        k(    7) = (   0.0407755   0.0706253   0.0000000), wk =   0.0156250
        k(    8) = (   0.0475714   0.0823961   0.0000000), wk =   0.0156250
        k(    9) = (   0.0543673   0.0941670   0.0000000), wk =   0.0156250
        k(   10) = (   0.0611633   0.1059379   0.0000000), wk =   0.0156250
        k(   11) = (   0.0679592   0.1177088   0.0000000), wk =   0.0156250
        k(   12) = (   0.0747551   0.1294796   0.0000000), wk =   0.0156250
        k(   13) = (   0.0815510   0.1412505   0.0000000), wk =   0.0156250
        k(   14) = (   0.0883469   0.1530214   0.0000000), wk =   0.0156250
        k(   15) = (   0.0951429   0.1647923   0.0000000), wk =   0.0156250
        k(   16) = (   0.1019388   0.1765631   0.0000000), wk =   0.0156250
        k(   17) = (   0.1087347   0.1883340   0.0000000), wk =   0.0156250
        k(   18) = (   0.1155306   0.2001049   0.0000000), wk =   0.0156250
        k(   19) = (   0.1223265   0.2118758   0.0000000), wk =   0.0156250
        k(   20) = (   0.1291224   0.2236466   0.0000000), wk =   0.0156250
        k(   21) = (   0.1359184   0.2354175   0.0000000), wk =   0.0156250
        k(   22) = (   0.1427143   0.2471884   0.0000000), wk =   0.0156250
        k(   23) = (   0.1495102   0.2589593   0.0000000), wk =   0.0156250
        k(   24) = (   0.1563061   0.2707301   0.0000000), wk =   0.0156250
        k(   25) = (   0.1631020   0.2825010   0.0000000), wk =   0.0156250
        k(   26) = (   0.1698980   0.2942719   0.0000000), wk =   0.0156250
        k(   27) = (   0.1766939   0.3060428   0.0000000), wk =   0.0156250
        k(   28) = (   0.1834898   0.3178136   0.0000000), wk =   0.0156250
        k(   29) = (   0.1902857   0.3295845   0.0000000), wk =   0.0156250
        k(   30) = (   0.1970816   0.3413554   0.0000000), wk =   0.0156250
        k(   31) = (   0.2038776   0.3531263   0.0000000), wk =   0.0156250
        k(   32) = (   0.2106735   0.3648972   0.0000000), wk =   0.0156250
        k(   33) = (   0.2174694   0.3766680   0.0000000), wk =   0.0156250
        k(   34) = (   0.2242653   0.3884389   0.0000000), wk =   0.0156250
        k(   35) = (   0.2310612   0.4002098   0.0000000), wk =   0.0156250
        k(   36) = (   0.2378571   0.4119807   0.0000000), wk =   0.0156250
        k(   37) = (   0.2446531   0.4237515   0.0000000), wk =   0.0156250
        k(   38) = (   0.2514490   0.4355224   0.0000000), wk =   0.0156250
        k(   39) = (   0.2582449   0.4472933   0.0000000), wk =   0.0156250
        k(   40) = (   0.2650408   0.4590642   0.0000000), wk =   0.0156250
        k(   41) = (   0.2718367   0.4708350   0.0000000), wk =   0.0156250
        k(   42) = (   0.2786327   0.4826059   0.0000000), wk =   0.0156250
        k(   43) = (   0.2854286   0.4943768   0.0000000), wk =   0.0156250
        k(   44) = (   0.2922245   0.5061477   0.0000000), wk =   0.0156250
        k(   45) = (   0.2990204   0.5179185   0.0000000), wk =   0.0156250
        k(   46) = (   0.3058163   0.5296894   0.0000000), wk =   0.0156250
        k(   47) = (   0.3126122   0.5414603   0.0000000), wk =   0.0156250
        k(   48) = (   0.3194082   0.5532312   0.0000000), wk =   0.0156250
        k(   49) = (   0.3262041   0.5650020   0.0000000), wk =   0.0156250
        k(   50) = (   0.3330000   0.5767729   0.0000000), wk =   0.0156250
        k(   51) = (   0.3387586   0.5668385   0.0000000), wk =   0.0156250
        k(   52) = (   0.3445172   0.5569041   0.0000000), wk =   0.0156250
        k(   53) = (   0.3502759   0.5469697   0.0000000), wk =   0.0156250
        k(   54) = (   0.3560345   0.5370353   0.0000000), wk =   0.0156250
        k(   55) = (   0.3617931   0.5271009   0.0000000), wk =   0.0156250
        k(   56) = (   0.3675517   0.5171665   0.0000000), wk =   0.0156250
        k(   57) = (   0.3733103   0.5072321   0.0000000), wk =   0.0156250
        k(   58) = (   0.3790690   0.4972977   0.0000000), wk =   0.0156250
        k(   59) = (   0.3848276   0.4873633   0.0000000), wk =   0.0156250
        k(   60) = (   0.3905862   0.4774289   0.0000000), wk =   0.0156250
        k(   61) = (   0.3963448   0.4674944   0.0000000), wk =   0.0156250
        k(   62) = (   0.4021034   0.4575600   0.0000000), wk =   0.0156250
        k(   63) = (   0.4078621   0.4476256   0.0000000), wk =   0.0156250
        k(   64) = (   0.4136207   0.4376912   0.0000000), wk =   0.0156250
        k(   65) = (   0.4193793   0.4277568   0.0000000), wk =   0.0156250
        k(   66) = (   0.4251379   0.4178224   0.0000000), wk =   0.0156250
        k(   67) = (   0.4308966   0.4078880   0.0000000), wk =   0.0156250
        k(   68) = (   0.4366552   0.3979536   0.0000000), wk =   0.0156250
        k(   69) = (   0.4424138   0.3880192   0.0000000), wk =   0.0156250
        k(   70) = (   0.4481724   0.3780848   0.0000000), wk =   0.0156250
        k(   71) = (   0.4539310   0.3681504   0.0000000), wk =   0.0156250
        k(   72) = (   0.4596897   0.3582160   0.0000000), wk =   0.0156250
        k(   73) = (   0.4654483   0.3482816   0.0000000), wk =   0.0156250
        k(   74) = (   0.4712069   0.3383472   0.0000000), wk =   0.0156250
        k(   75) = (   0.4769655   0.3284128   0.0000000), wk =   0.0156250
        k(   76) = (   0.4827241   0.3184784   0.0000000), wk =   0.0156250
        k(   77) = (   0.4884828   0.3085439   0.0000000), wk =   0.0156250
        k(   78) = (   0.4942414   0.2986095   0.0000000), wk =   0.0156250
        k(   79) = (   0.5000000   0.2886751   0.0000000), wk =   0.0156250
        k(   80) = (   0.4897959   0.2827838   0.0000000), wk =   0.0156250
        k(   81) = (   0.4795918   0.2768925   0.0000000), wk =   0.0156250
        k(   82) = (   0.4693878   0.2710011   0.0000000), wk =   0.0156250
        k(   83) = (   0.4591837   0.2651098   0.0000000), wk =   0.0156250
        k(   84) = (   0.4489796   0.2592185   0.0000000), wk =   0.0156250
        k(   85) = (   0.4387755   0.2533272   0.0000000), wk =   0.0156250
        k(   86) = (   0.4285714   0.2474358   0.0000000), wk =   0.0156250
        k(   87) = (   0.4183673   0.2415445   0.0000000), wk =   0.0156250
        k(   88) = (   0.4081633   0.2356532   0.0000000), wk =   0.0156250
        k(   89) = (   0.3979592   0.2297618   0.0000000), wk =   0.0156250
        k(   90) = (   0.3877551   0.2238705   0.0000000), wk =   0.0156250
        k(   91) = (   0.3775510   0.2179792   0.0000000), wk =   0.0156250
        k(   92) = (   0.3673469   0.2120879   0.0000000), wk =   0.0156250
        k(   93) = (   0.3571429   0.2061965   0.0000000), wk =   0.0156250
        k(   94) = (   0.3469388   0.2003052   0.0000000), wk =   0.0156250
        k(   95) = (   0.3367347   0.1944139   0.0000000), wk =   0.0156250
        k(   96) = (   0.3265306   0.1885225   0.0000000), wk =   0.0156250
        k(   97) = (   0.3163265   0.1826312   0.0000000), wk =   0.0156250
        k(   98) = (   0.3061224   0.1767399   0.0000000), wk =   0.0156250
        k(   99) = (   0.2959184   0.1708485   0.0000000), wk =   0.0156250
        k(  100) = (   0.2857143   0.1649572   0.0000000), wk =   0.0156250
        k(  101) = (   0.2755102   0.1590659   0.0000000), wk =   0.0156250
        k(  102) = (   0.2653061   0.1531746   0.0000000), wk =   0.0156250
        k(  103) = (   0.2551020   0.1472832   0.0000000), wk =   0.0156250
        k(  104) = (   0.2448980   0.1413919   0.0000000), wk =   0.0156250
        k(  105) = (   0.2346939   0.1355006   0.0000000), wk =   0.0156250
        k(  106) = (   0.2244898   0.1296092   0.0000000), wk =   0.0156250
        k(  107) = (   0.2142857   0.1237179   0.0000000), wk =   0.0156250
        k(  108) = (   0.2040816   0.1178266   0.0000000), wk =   0.0156250
        k(  109) = (   0.1938776   0.1119353   0.0000000), wk =   0.0156250
        k(  110) = (   0.1836735   0.1060439   0.0000000), wk =   0.0156250
        k(  111) = (   0.1734694   0.1001526   0.0000000), wk =   0.0156250
        k(  112) = (   0.1632653   0.0942613   0.0000000), wk =   0.0156250
        k(  113) = (   0.1530612   0.0883699   0.0000000), wk =   0.0156250
        k(  114) = (   0.1428571   0.0824786   0.0000000), wk =   0.0156250
        k(  115) = (   0.1326531   0.0765873   0.0000000), wk =   0.0156250
        k(  116) = (   0.1224490   0.0706960   0.0000000), wk =   0.0156250
        k(  117) = (   0.1122449   0.0648046   0.0000000), wk =   0.0156250
        k(  118) = (   0.1020408   0.0589133   0.0000000), wk =   0.0156250
        k(  119) = (   0.0918367   0.0530220   0.0000000), wk =   0.0156250
        k(  120) = (   0.0816327   0.0471306   0.0000000), wk =   0.0156250
        k(  121) = (   0.0714286   0.0412393   0.0000000), wk =   0.0156250
        k(  122) = (   0.0612245   0.0353480   0.0000000), wk =   0.0156250
        k(  123) = (   0.0510204   0.0294566   0.0000000), wk =   0.0156250
        k(  124) = (   0.0408163   0.0235653   0.0000000), wk =   0.0156250
        k(  125) = (   0.0306122   0.0176740   0.0000000), wk =   0.0156250
        k(  126) = (   0.0204082   0.0117827   0.0000000), wk =   0.0156250
        k(  127) = (   0.0102041   0.0058913   0.0000000), wk =   0.0156250
        k(  128) = (   0.0000000   0.0000000   0.0000000), wk =   0.0156250

                       cryst. coord.
        k(    1) = (   0.0000000   0.0000000   0.0000000), wk =   0.0156250
        k(    2) = (   0.0067959   0.0067959   0.0000000), wk =   0.0156250
        k(    3) = (   0.0135918   0.0135918   0.0000000), wk =   0.0156250
        k(    4) = (   0.0203878   0.0203878   0.0000000), wk =   0.0156250
        k(    5) = (   0.0271837   0.0271837   0.0000000), wk =   0.0156250
        k(    6) = (   0.0339796   0.0339796   0.0000000), wk =   0.0156250
        k(    7) = (   0.0407755   0.0407755   0.0000000), wk =   0.0156250
        k(    8) = (   0.0475714   0.0475714   0.0000000), wk =   0.0156250
        k(    9) = (   0.0543673   0.0543673   0.0000000), wk =   0.0156250
        k(   10) = (   0.0611633   0.0611633   0.0000000), wk =   0.0156250
        k(   11) = (   0.0679592   0.0679592   0.0000000), wk =   0.0156250
        k(   12) = (   0.0747551   0.0747551   0.0000000), wk =   0.0156250
        k(   13) = (   0.0815510   0.0815510   0.0000000), wk =   0.0156250
        k(   14) = (   0.0883469   0.0883469   0.0000000), wk =   0.0156250
        k(   15) = (   0.0951429   0.0951429   0.0000000), wk =   0.0156250
        k(   16) = (   0.1019388   0.1019388   0.0000000), wk =   0.0156250
        k(   17) = (   0.1087347   0.1087347   0.0000000), wk =   0.0156250
        k(   18) = (   0.1155306   0.1155306   0.0000000), wk =   0.0156250
        k(   19) = (   0.1223265   0.1223265   0.0000000), wk =   0.0156250
        k(   20) = (   0.1291224   0.1291224   0.0000000), wk =   0.0156250
        k(   21) = (   0.1359184   0.1359184   0.0000000), wk =   0.0156250
        k(   22) = (   0.1427143   0.1427143   0.0000000), wk =   0.0156250
        k(   23) = (   0.1495102   0.1495102   0.0000000), wk =   0.0156250
        k(   24) = (   0.1563061   0.1563061   0.0000000), wk =   0.0156250
        k(   25) = (   0.1631020   0.1631020   0.0000000), wk =   0.0156250
        k(   26) = (   0.1698980   0.1698980   0.0000000), wk =   0.0156250
        k(   27) = (   0.1766939   0.1766939   0.0000000), wk =   0.0156250
        k(   28) = (   0.1834898   0.1834898   0.0000000), wk =   0.0156250
        k(   29) = (   0.1902857   0.1902857   0.0000000), wk =   0.0156250
        k(   30) = (   0.1970816   0.1970816   0.0000000), wk =   0.0156250
        k(   31) = (   0.2038776   0.2038776   0.0000000), wk =   0.0156250
        k(   32) = (   0.2106735   0.2106735   0.0000000), wk =   0.0156250
        k(   33) = (   0.2174694   0.2174694   0.0000000), wk =   0.0156250
        k(   34) = (   0.2242653   0.2242653   0.0000000), wk =   0.0156250
        k(   35) = (   0.2310612   0.2310612   0.0000000), wk =   0.0156250
        k(   36) = (   0.2378571   0.2378571   0.0000000), wk =   0.0156250
        k(   37) = (   0.2446531   0.2446531   0.0000000), wk =   0.0156250
        k(   38) = (   0.2514490   0.2514490   0.0000000), wk =   0.0156250
        k(   39) = (   0.2582449   0.2582449   0.0000000), wk =   0.0156250
        k(   40) = (   0.2650408   0.2650408   0.0000000), wk =   0.0156250
        k(   41) = (   0.2718367   0.2718367   0.0000000), wk =   0.0156250
        k(   42) = (   0.2786327   0.2786327   0.0000000), wk =   0.0156250
        k(   43) = (   0.2854286   0.2854286   0.0000000), wk =   0.0156250
        k(   44) = (   0.2922245   0.2922245   0.0000000), wk =   0.0156250
        k(   45) = (   0.2990204   0.2990204   0.0000000), wk =   0.0156250
        k(   46) = (   0.3058163   0.3058163   0.0000000), wk =   0.0156250
        k(   47) = (   0.3126122   0.3126122   0.0000000), wk =   0.0156250
        k(   48) = (   0.3194082   0.3194082   0.0000000), wk =   0.0156250
        k(   49) = (   0.3262041   0.3262041   0.0000000), wk =   0.0156250
        k(   50) = (   0.3330000   0.3330000   0.0000000), wk =   0.0156250
        k(   51) = (   0.3387586   0.3215172   0.0000000), wk =   0.0156250
        k(   52) = (   0.3445172   0.3100345   0.0000000), wk =   0.0156250
        k(   53) = (   0.3502759   0.2985517   0.0000000), wk =   0.0156250
        k(   54) = (   0.3560345   0.2870690   0.0000000), wk =   0.0156250
        k(   55) = (   0.3617931   0.2755862   0.0000000), wk =   0.0156250
        k(   56) = (   0.3675517   0.2641034   0.0000000), wk =   0.0156250
        k(   57) = (   0.3733103   0.2526207   0.0000000), wk =   0.0156250
        k(   58) = (   0.3790690   0.2411379   0.0000000), wk =   0.0156250
        k(   59) = (   0.3848276   0.2296552   0.0000000), wk =   0.0156250
        k(   60) = (   0.3905862   0.2181724   0.0000000), wk =   0.0156250
        k(   61) = (   0.3963448   0.2066897   0.0000000), wk =   0.0156250
        k(   62) = (   0.4021034   0.1952069   0.0000000), wk =   0.0156250
        k(   63) = (   0.4078621   0.1837241   0.0000000), wk =   0.0156250
        k(   64) = (   0.4136207   0.1722414   0.0000000), wk =   0.0156250
        k(   65) = (   0.4193793   0.1607586   0.0000000), wk =   0.0156250
        k(   66) = (   0.4251379   0.1492759   0.0000000), wk =   0.0156250
        k(   67) = (   0.4308966   0.1377931   0.0000000), wk =   0.0156250
        k(   68) = (   0.4366552   0.1263103   0.0000000), wk =   0.0156250
        k(   69) = (   0.4424138   0.1148276   0.0000000), wk =   0.0156250
        k(   70) = (   0.4481724   0.1033448   0.0000000), wk =   0.0156250
        k(   71) = (   0.4539310   0.0918621   0.0000000), wk =   0.0156250
        k(   72) = (   0.4596897   0.0803793   0.0000000), wk =   0.0156250
        k(   73) = (   0.4654483   0.0688966   0.0000000), wk =   0.0156250
        k(   74) = (   0.4712069   0.0574138   0.0000000), wk =   0.0156250
        k(   75) = (   0.4769655   0.0459310   0.0000000), wk =   0.0156250
        k(   76) = (   0.4827241   0.0344483   0.0000000), wk =   0.0156250
        k(   77) = (   0.4884828   0.0229655   0.0000000), wk =   0.0156250
        k(   78) = (   0.4942414   0.0114828   0.0000000), wk =   0.0156250
        k(   79) = (   0.5000000  -0.0000000   0.0000000), wk =   0.0156250
        k(   80) = (   0.4897959  -0.0000000   0.0000000), wk =   0.0156250
        k(   81) = (   0.4795918   0.0000000   0.0000000), wk =   0.0156250
        k(   82) = (   0.4693878  -0.0000000   0.0000000), wk =   0.0156250
        k(   83) = (   0.4591837  -0.0000000   0.0000000), wk =   0.0156250
        k(   84) = (   0.4489796  -0.0000000   0.0000000), wk =   0.0156250
        k(   85) = (   0.4387755  -0.0000000   0.0000000), wk =   0.0156250
        k(   86) = (   0.4285714   0.0000000   0.0000000), wk =   0.0156250
        k(   87) = (   0.4183673   0.0000000   0.0000000), wk =   0.0156250
        k(   88) = (   0.4081633  -0.0000000   0.0000000), wk =   0.0156250
        k(   89) = (   0.3979592  -0.0000000   0.0000000), wk =   0.0156250
        k(   90) = (   0.3877551  -0.0000000   0.0000000), wk =   0.0156250
        k(   91) = (   0.3775510  -0.0000000   0.0000000), wk =   0.0156250
        k(   92) = (   0.3673469   0.0000000   0.0000000), wk =   0.0156250
        k(   93) = (   0.3571429  -0.0000000   0.0000000), wk =   0.0156250
        k(   94) = (   0.3469388  -0.0000000   0.0000000), wk =   0.0156250
        k(   95) = (   0.3367347  -0.0000000   0.0000000), wk =   0.0156250
        k(   96) = (   0.3265306  -0.0000000   0.0000000), wk =   0.0156250
        k(   97) = (   0.3163265  -0.0000000   0.0000000), wk =   0.0156250
        k(   98) = (   0.3061224   0.0000000   0.0000000), wk =   0.0156250
        k(   99) = (   0.2959184  -0.0000000   0.0000000), wk =   0.0156250
        k(  100) = (   0.2857143  -0.0000000   0.0000000), wk =   0.0156250
        k(  101) = (   0.2755102  -0.0000000   0.0000000), wk =   0.0156250
        k(  102) = (   0.2653061  -0.0000000   0.0000000), wk =   0.0156250
        k(  103) = (   0.2551020   0.0000000   0.0000000), wk =   0.0156250
        k(  104) = (   0.2448980  -0.0000000   0.0000000), wk =   0.0156250
        k(  105) = (   0.2346939  -0.0000000   0.0000000), wk =   0.0156250
        k(  106) = (   0.2244898  -0.0000000   0.0000000), wk =   0.0156250
        k(  107) = (   0.2142857   0.0000000   0.0000000), wk =   0.0156250
        k(  108) = (   0.2040816  -0.0000000   0.0000000), wk =   0.0156250
        k(  109) = (   0.1938776  -0.0000000   0.0000000), wk =   0.0156250
        k(  110) = (   0.1836735  -0.0000000   0.0000000), wk =   0.0156250
        k(  111) = (   0.1734694  -0.0000000   0.0000000), wk =   0.0156250
        k(  112) = (   0.1632653  -0.0000000   0.0000000), wk =   0.0156250
        k(  113) = (   0.1530612   0.0000000   0.0000000), wk =   0.0156250
        k(  114) = (   0.1428571  -0.0000000   0.0000000), wk =   0.0156250
        k(  115) = (   0.1326531  -0.0000000   0.0000000), wk =   0.0156250
        k(  116) = (   0.1224490   0.0000000   0.0000000), wk =   0.0156250
        k(  117) = (   0.1122449  -0.0000000   0.0000000), wk =   0.0156250
        k(  118) = (   0.1020408  -0.0000000   0.0000000), wk =   0.0156250
        k(  119) = (   0.0918367   0.0000000   0.0000000), wk =   0.0156250
        k(  120) = (   0.0816327  -0.0000000   0.0000000), wk =   0.0156250
        k(  121) = (   0.0714286  -0.0000000   0.0000000), wk =   0.0156250
        k(  122) = (   0.0612245   0.0000000   0.0000000), wk =   0.0156250
        k(  123) = (   0.0510204  -0.0000000   0.0000000), wk =   0.0156250
        k(  124) = (   0.0408163  -0.0000000   0.0000000), wk =   0.0156250
        k(  125) = (   0.0306122  -0.0000000   0.0000000), wk =   0.0156250
        k(  126) = (   0.0204082  -0.0000000   0.0000000), wk =   0.0156250
        k(  127) = (   0.0102041  -0.0000000   0.0000000), wk =   0.0156250
        k(  128) = (   0.0000000  -0.0000000   0.0000000), wk =   0.0156250

     Dense  grid:   145281 G-vectors     FFT dimensions: (  40,  40, 225)

     Dynamical RAM for                 wfc:       0.19 MB

     Dynamical RAM for     wfc (w. buffer):      12.50 MB

     Dynamical RAM for           str. fact:       0.06 MB

     Dynamical RAM for           local pot:       0.00 MB

     Dynamical RAM for          nlocal pot:       0.26 MB

     Dynamical RAM for                qrad:       7.71 MB

     Dynamical RAM for          rho,v,vnew:       0.24 MB

     Dynamical RAM for           G-vectors:       0.13 MB

     Dynamical RAM for          h,s,v(r/c):       0.01 MB

     Dynamical RAM for          <psi|beta>:       0.05 MB

     Dynamical RAM for                 psi:       0.38 MB

     Dynamical RAM for                hpsi:       0.38 MB

     Dynamical RAM for      wfcinit/wfcrot:       0.44 MB

     Estimated static dynamical RAM per process >      21.23 MB

     Estimated max dynamical RAM per process >      22.06 MB

     Estimated total dynamical RAM >       3.10 GB

     The potential is recalculated from file :
     ./WS2.save/charge-density

     Starting wfcs are random

     Band Structure Calculation
     Davidson diagonalization with overlap

     Computing kpt #:     1  of    64 on this pool
     total cpu time spent up to now is        1.8 secs

     Computing kpt #:     2  of    64 on this pool
     total cpu time spent up to now is        2.7 secs

     Computing kpt #:     3  of    64 on this pool
     total cpu time spent up to now is        3.6 secs

     Computing kpt #:     4  of    64 on this pool
     c_bands:  1 eigenvalues not converged
     total cpu time spent up to now is        4.6 secs

     Computing kpt #:     5  of    64 on this pool
     total cpu time spent up to now is        5.4 secs

     Computing kpt #:     6  of    64 on this pool
     total cpu time spent up to now is        6.2 secs

     Computing kpt #:     7  of    64 on this pool
     total cpu time spent up to now is        6.9 secs

     Computing kpt #:     8  of    64 on this pool
     total cpu time spent up to now is        7.8 secs

     Computing kpt #:     9  of    64 on this pool
     total cpu time spent up to now is        8.9 secs

     Computing kpt #:    10  of    64 on this pool
     total cpu time spent up to now is        9.9 secs

     Computing kpt #:    11  of    64 on this pool
     total cpu time spent up to now is       10.7 secs

     Computing kpt #:    12  of    64 on this pool
     total cpu time spent up to now is       11.5 secs

     Computing kpt #:    13  of    64 on this pool
     total cpu time spent up to now is       12.3 secs

     Computing kpt #:    14  of    64 on this pool
     total cpu time spent up to now is       13.2 secs

     Computing kpt #:    15  of    64 on this pool
     total cpu time spent up to now is       14.1 secs

     Computing kpt #:    16  of    64 on this pool
     total cpu time spent up to now is       15.0 secs

     Computing kpt #:    17  of    64 on this pool
     total cpu time spent up to now is       15.7 secs

     Computing kpt #:    18  of    64 on this pool
     total cpu time spent up to now is       16.5 secs

     Computing kpt #:    19  of    64 on this pool
     total cpu time spent up to now is       17.4 secs

     Computing kpt #:    20  of    64 on this pool
     total cpu time spent up to now is       18.3 secs

     Computing kpt #:    21  of    64 on this pool
     total cpu time spent up to now is       19.2 secs

     Computing kpt #:    22  of    64 on this pool
     total cpu time spent up to now is       20.1 secs

     Computing kpt #:    23  of    64 on this pool
     total cpu time spent up to now is       20.9 secs

     Computing kpt #:    24  of    64 on this pool
     total cpu time spent up to now is       21.7 secs

     Computing kpt #:    25  of    64 on this pool
     total cpu time spent up to now is       22.5 secs

     Computing kpt #:    26  of    64 on this pool
     total cpu time spent up to now is       23.2 secs

     Computing kpt #:    27  of    64 on this pool
     total cpu time spent up to now is       23.9 secs

     Computing kpt #:    28  of    64 on this pool
     total cpu time spent up to now is       24.7 secs

     Computing kpt #:    29  of    64 on this pool
     total cpu time spent up to now is       25.4 secs

     Computing kpt #:    30  of    64 on this pool
     total cpu time spent up to now is       26.1 secs

     Computing kpt #:    31  of    64 on this pool
     total cpu time spent up to now is       26.9 secs

     Computing kpt #:    32  of    64 on this pool
     total cpu time spent up to now is       27.6 secs

     Computing kpt #:    33  of    64 on this pool
     total cpu time spent up to now is       28.6 secs

     Computing kpt #:    34  of    64 on this pool
     total cpu time spent up to now is       29.5 secs

     Computing kpt #:    35  of    64 on this pool
     total cpu time spent up to now is       30.2 secs

     Computing kpt #:    36  of    64 on this pool
     total cpu time spent up to now is       30.9 secs

     Computing kpt #:    37  of    64 on this pool
     total cpu time spent up to now is       31.6 secs

     Computing kpt #:    38  of    64 on this pool
     total cpu time spent up to now is       32.3 secs

     Computing kpt #:    39  of    64 on this pool
     total cpu time spent up to now is       33.1 secs

     Computing kpt #:    40  of    64 on this pool
     total cpu time spent up to now is       34.0 secs

     Computing kpt #:    41  of    64 on this pool
     total cpu time spent up to now is       35.0 secs

     Computing kpt #:    42  of    64 on this pool
     total cpu time spent up to now is       35.8 secs

     Computing kpt #:    43  of    64 on this pool
     total cpu time spent up to now is       36.6 secs

     Computing kpt #:    44  of    64 on this pool
     total cpu time spent up to now is       37.5 secs

     Computing kpt #:    45  of    64 on this pool
     total cpu time spent up to now is       38.3 secs

     Computing kpt #:    46  of    64 on this pool
     total cpu time spent up to now is       39.0 secs

     Computing kpt #:    47  of    64 on this pool
     total cpu time spent up to now is       39.7 secs

     Computing kpt #:    48  of    64 on this pool
     total cpu time spent up to now is       40.5 secs

     Computing kpt #:    49  of    64 on this pool
     total cpu time spent up to now is       41.6 secs

     Computing kpt #:    50  of    64 on this pool
     total cpu time spent up to now is       42.4 secs

     Computing kpt #:    51  of    64 on this pool
     total cpu time spent up to now is       43.2 secs

     Computing kpt #:    52  of    64 on this pool
     total cpu time spent up to now is       44.0 secs

     Computing kpt #:    53  of    64 on this pool
     total cpu time spent up to now is       44.9 secs

     Computing kpt #:    54  of    64 on this pool
     total cpu time spent up to now is       46.1 secs

     Computing kpt #:    55  of    64 on this pool
     total cpu time spent up to now is       47.0 secs

     Computing kpt #:    56  of    64 on this pool
     total cpu time spent up to now is       47.7 secs

     Computing kpt #:    57  of    64 on this pool
     total cpu time spent up to now is       48.5 secs

     Computing kpt #:    58  of    64 on this pool
     total cpu time spent up to now is       49.3 secs

     Computing kpt #:    59  of    64 on this pool
     total cpu time spent up to now is       50.2 secs

     Computing kpt #:    60  of    64 on this pool
     total cpu time spent up to now is       51.1 secs

     Computing kpt #:    61  of    64 on this pool
     total cpu time spent up to now is       51.9 secs

     Computing kpt #:    62  of    64 on this pool
     total cpu time spent up to now is       52.7 secs

     Computing kpt #:    63  of    64 on this pool
     total cpu time spent up to now is       53.7 secs

     Computing kpt #:    64  of    64 on this pool
     total cpu time spent up to now is       54.6 secs

     ethr =  3.85E-12,  avg # of iterations = 68.3

     total cpu time spent up to now is       54.6 secs

     End of band structure calculation

          k = 0.0000 0.0000 0.0000 ( 18289 PWs)   bands (ev):

   -74.1575 -38.3876 -38.2348 -38.2348 -14.8288 -13.2119  -6.4195  -2.9285
    -2.9285  -2.2097  -1.7077  -1.7077  -0.1479   2.7727   2.7727   2.9153
     2.9153   4.8500   5.3414   5.4689   6.4041   7.6609   8.5170   9.0183
    10.3536  10.3536  11.1944  11.8921  12.5788  12.5788  13.3003  15.5153
    15.9234  15.9234  15.9962  16.2171  16.2171  16.3696  19.1420  19.1501
    21.3727  21.6272  22.5173  22.5173  24.0826  24.0826  24.4201  24.6041
    24.6209  24.6209

          k = 0.0068 0.0118 0.0000 ( 18291 PWs)   bands (ev):

   -74.1574 -38.3875 -38.2353 -38.2349 -14.8265 -13.2110  -6.4167  -2.9349
    -2.9263  -2.2218  -1.7116  -1.6995  -0.1488   2.7699   2.7773   2.9085
     2.9131   4.8581   5.3442   5.4754   6.4076   7.6634   8.5274   9.0204
    10.3421  10.3602  11.1962  11.9020  12.5589  12.5784  13.3001  15.5288
    15.8852  15.9282  16.0294  16.2055  16.2093  16.3821  19.1547  19.1673
    21.3754  21.6162  22.5133  22.5237  23.8618  24.0254  24.3165  24.5497
    24.5695  24.6720

          k = 0.0136 0.0235 0.0000 ( 18287 PWs)   bands (ev):

   -74.1574 -38.3872 -38.2366 -38.2352 -14.8196 -13.2085  -6.4084  -2.9539
    -2.9195  -2.2558  -1.7231  -1.6769  -0.1518   2.7617   2.7908   2.8886
     2.9066   4.8816   5.3525   5.4952   6.4180   7.6711   8.5585   9.0268
    10.3090  10.3797  11.2017  11.9304  12.5016  12.5774  13.2994  15.5624
    15.8158  15.9411  16.0918  16.1763  16.1864  16.4138  19.1684  19.2414
    21.3837  21.5835  22.5015  22.5421  23.5214  23.8493  23.9891  24.3230
    24.5551  24.6481

          k = 0.0204 0.0353 0.0000 ( 18287 PWs)   bands (ev):

   -74.1573 -38.3868 -38.2389 -38.2358 -14.8082 -13.2042  -6.3946  -2.9852
    -2.9083  -2.3065  -1.7424  -1.6452  -0.1568   2.7485   2.8133   2.8567
     2.8959   4.9189   5.3663   5.5286   6.4355   7.6837   8.6096   9.0371
    10.2575  10.4120  11.2104  11.9741  12.4125  12.5755  13.2978  15.5869
    15.7504  15.9594  16.1339  16.1522  16.1799  16.4572  19.1913  19.3590
    21.3973  21.5301  22.4819  22.5686  23.1693  23.5833  23.6566  24.0274
    24.4933  24.6659

          k = 0.0272 0.0471 0.0000 ( 18275 PWs)   bands (ev):

   -74.1571 -38.3863 -38.2421 -38.2365 -14.7922 -13.1983  -6.3753  -3.0281
    -2.8927  -2.3688  -1.7696  -1.6089  -0.1642   2.7314   2.8146   2.8444
     2.8810   4.9673   5.3856   5.5765   6.4601   7.7015   8.6794   9.0510
    10.1920  10.4566  11.2216  12.0290  12.2996  12.5726  13.2949  15.5348
    15.7500  15.9803  16.0746  16.1138  16.3028  16.5097  19.2235  19.5129
    21.4162  21.4581  22.4529  22.5917  22.8176  23.2751  23.3393  23.7160
    24.4304  24.4586

          k = 0.0340 0.0589 0.0000 ( 18267 PWs)   bands (ev):

   -74.1569 -38.3855 -38.2461 -38.2375 -14.7718 -13.1907  -6.3507  -3.0821
    -2.8729  -2.4389  -1.8049  -1.5716  -0.1743   2.7114   2.7642   2.8622
     2.8839   5.0238   5.4102   5.6397   6.4920   7.7241   8.7663   9.0677
    10.1174  10.5128  11.2339  12.0908  12.1713  12.5685  13.2902  15.4226
    15.7971  15.9964  16.0029  16.0755  16.4628  16.5709  19.2652  19.6957
    21.3694  21.4399  22.4078  22.4700  22.5722  22.9510  23.0816  23.4090
    24.0818  24.2966

          k = 0.0408 0.0706 0.0000 ( 18255 PWs)   bands (ev):

   -74.1567 -38.3847 -38.2509 -38.2386 -14.7470 -13.1815  -6.3208  -3.1460
    -2.8489  -2.5144  -1.8484  -1.5353  -0.1874   2.6898   2.7077   2.8396
     2.9314   5.0856   5.4402   5.7183   6.5317   7.7517   8.8683   9.0863
    10.0379  10.5797  11.2447  12.0364  12.1557  12.5629  13.2834  15.2926
    15.8539  15.8991  16.0273  16.0387  16.6409  16.6554  19.3161  19.8999
    21.2660  21.4670  22.1295  22.3136  22.4461  22.6229  22.9673  23.1224
    23.7386  24.0164

          k = 0.0476 0.0824 0.0000 ( 18267 PWs)   bands (ev):

   -74.1564 -38.3836 -38.2566 -38.2400 -14.7179 -13.1707  -6.2859  -3.2190
    -2.8210  -2.5933  -1.9001  -1.5013  -0.2039   2.6472   2.6677   2.8136
     2.9863   5.1505   5.4755   5.8119   6.5797   7.7842   8.9832   9.1057
     9.9577  10.6563  11.2491  11.9050  12.2201  12.5555  13.2746  15.1578
    15.7828  15.9139  16.0047  16.0541  16.7201  16.8739  19.3758  20.1186
    21.1488  21.4890  21.8053  22.0846  22.2971  22.3038  22.8619  22.9741
    23.4141  23.7339

          k = 0.0544 0.0942 0.0000 ( 18265 PWs)   bands (ev):

   -74.1561 -38.3825 -38.2630 -38.2416 -14.6844 -13.1584  -6.2461  -3.3000
    -2.7894  -2.6744  -1.9602  -1.4702  -0.2242   2.5845   2.6465   2.7846
     3.0482   5.2169   5.5161   5.9188   6.6368   7.8214   9.1083   9.1241
     9.8808  10.7413  11.2381  11.7902  12.2811  12.5462  13.2643  15.0248
    15.6483  15.9745  15.9764  16.0841  16.8085  17.1121  19.4428  20.3432
    21.0174  21.3963  21.6079  21.7833  21.9798  22.1418  22.6672  22.9207
    23.1731  23.4838

          k = 0.0612 0.1059 0.0000 ( 18267 PWs)   bands (ev):

   -74.1557 -38.3812 -38.2701 -38.2434 -14.6469 -13.1444  -6.2016  -3.3878
    -2.7567  -2.7544  -2.0284  -1.4426  -0.2490   2.5214   2.6272   2.7531
     3.1164   5.2844   5.5617   6.0362   6.7044   7.8632   9.1393   9.2405
     9.8112  10.8330  11.1987  11.7085  12.3360  12.5348  13.2539  14.8984
    15.4966  15.9488  16.0401  16.1194  16.9061  17.3650  19.5143  20.5590
    20.8699  21.1034  21.4703  21.6200  21.6863  21.9343  22.4907  22.7026
    23.0503  23.3399

          k = 0.0680 0.1177 0.0000 ( 18247 PWs)   bands (ev):

   -74.1553 -38.3797 -38.2779 -38.2455 -14.6053 -13.1290  -6.1527  -3.4814
    -2.8393  -2.7162  -2.1046  -1.4186  -0.2784   2.4592   2.6108   2.7200
     3.1903   5.3531   5.6125   6.1600   6.7844   7.9096   9.1481   9.3763
     9.7535  10.9296  11.1242  11.6695  12.3826  12.5214  13.2452  14.7822
    15.3291  15.9279  16.0995  16.1658  17.0129  17.6288  19.5842  20.7033
    20.7172  20.7989  21.1637  21.4397  21.6765  21.7057  22.2507  22.4962
    22.8888  23.0115

          k = 0.0748 0.1295 0.0000 ( 18225 PWs)   bands (ev):

   -74.1549 -38.3782 -38.2863 -38.2477 -14.5598 -13.1122  -6.0996  -3.5796
    -2.9218  -2.6755  -2.1884  -1.3982  -0.3128   2.3993   2.5981   2.6860
     3.2691   5.4233   5.6682   6.2859   6.8787   7.9603   9.1473   9.5111
     9.7122  11.0240  11.0286  11.6669  12.4191  12.5067  13.2401  14.6792
    15.1483  15.9118  16.1478  16.2301  17.1285  17.8998  19.6401  20.4805
    20.5134  20.7197  20.8800  21.3769  21.4753  21.7381  21.9572  22.3118
    22.6886  22.7576

          k = 0.0816 0.1413 0.0000 ( 18231 PWs)   bands (ev):

   -74.1545 -38.3765 -38.2952 -38.2502 -14.5105 -13.0939  -6.0427  -3.6812
    -3.0035  -2.6326  -2.2793  -1.3815  -0.3525   2.3422   2.5897   2.6522
     3.3520   5.4954   5.7289   6.4094   6.9891   8.0152   9.1346   9.6393
     9.6905  10.9157  11.1272  11.6867  12.4453  12.4917  13.2394  14.5918
    14.9574  15.9003  16.1882  16.3089  17.2526  18.1746  19.6574  20.1829
    20.2915  20.5125  20.6493  21.2490  21.5022  21.6568  21.8152  22.1232
    22.3733  22.6701

          k = 0.0883 0.1530 0.0000 ( 18221 PWs)   bands (ev):

   -74.1540 -38.3747 -38.3046 -38.2529 -14.4576 -13.0744  -5.9824  -3.7854
    -3.0841  -2.5883  -2.3767  -1.3685  -0.3972   2.2885   2.5860   2.6200
     3.4383   5.5699   5.7945   6.5276   7.1157   8.0741   9.1105   9.6890
     9.7524  10.8149  11.2219  11.7190  12.4631  12.4785  13.2419  14.5217
    14.7610  15.8930  16.2257  16.3964  17.3847  18.4486  19.6013  19.8969
    20.0326  20.2407  20.5025  21.0260  21.3715  21.6564  21.9112  21.9469
    22.0790  22.6047

          k = 0.0951 0.1648 0.0000 ( 18233 PWs)   bands (ev):

   -74.1535 -38.3729 -38.3144 -38.2557 -14.4013 -13.0535  -5.9192  -3.8909
    -3.1634  -2.5432  -2.4797  -1.3590  -0.4467   2.2382   2.5872   2.5907
     3.5271   5.6471   5.8647   6.6394   7.2563   8.1367   9.0785   9.7054
     9.8392  10.7360  11.3085  11.7573  12.4697  12.4764  13.2427  14.4697
    14.5661  15.8896  16.2620  16.4902  17.5244  18.7116  19.4577  19.6305
    19.7503  19.9568  20.4130  20.8033  21.1349  21.7207  21.7725  21.7962
    22.0902  22.4307

          k = 0.1019 0.1766 0.0000 ( 18225 PWs)   bands (ev):

   -74.1529 -38.3709 -38.3246 -38.2588 -14.3417 -13.0315  -5.8535  -3.9967
    -3.2411  -2.5874  -2.4984  -1.3531  -0.5005   2.1910   2.5659   2.5935
     3.6176   5.7274   5.9396   6.7457   7.4063   8.2027   9.0440   9.7359
     9.8863  10.6923  11.3822  11.7979  12.4687  12.4911  13.2318  14.3841
    14.4360  15.8901  16.2971  16.5887  17.6709  18.9233  19.2501  19.4136
    19.4598  19.6835  20.2894  20.5666  21.0169  21.4494  21.6745  21.7307
    22.1444  22.4240

          k = 0.1087 0.1883 0.0000 ( 18213 PWs)   bands (ev):

   -74.1524 -38.3689 -38.3350 -38.2622 -14.2790 -13.0083  -5.7861  -4.1018
    -3.3174  -2.6987  -2.4548  -1.3507  -0.5575   2.1465   2.5470   2.6048
     3.7091   5.8110   6.0190   6.8483   7.5589   8.2717   9.0131   9.7772
     9.8869  10.6899  11.4384  11.8384  12.4792  12.5134  13.1934  14.2316
    14.4199  15.8944  16.3303  16.6908  17.8232  18.9275  19.0078  19.1695
    19.2882  19.5388  20.0904  20.3036  21.0366  21.1651  21.5600  21.5794
    22.1591  22.4055

          k = 0.1155 0.2001 0.0000 ( 18205 PWs)   bands (ev):

   -74.1518 -38.3668 -38.3457 -38.2657 -14.2135 -12.9841  -5.7177  -4.2049
    -3.3925  -2.8122  -2.4139  -1.3517  -0.6166   2.1045   2.5352   2.6210
     3.8006   5.8980   6.1028   6.9491   7.7057   8.3432   8.9926   9.8266
     9.8484  10.7202  11.4742  11.8777  12.5038  12.5473  13.1099  14.1279
    14.4200  15.9028  16.3608  16.7950  17.9789  18.7452  18.7489  18.8838
    19.0511  19.7060  19.8477  20.0278  20.8906  21.1266  21.3192  21.5067
    22.2200  22.3148

          k = 0.1223 0.2119 0.0000 ( 18211 PWs)   bands (ev):

   -74.1512 -38.3646 -38.3564 -38.2694 -14.1453 -12.9590  -5.6495  -4.3047
    -3.4669  -2.9262  -2.3771  -1.3563  -0.6762   2.0650   2.5314   2.6419
     3.8913   5.9884   6.1908   7.0495   7.8366   8.4168   8.9904   9.7864
     9.8827  10.7665  11.4888  11.9161  12.5441  12.5930  12.9743  14.0829
    14.4340  15.9161  16.3874  16.8992  18.1289  18.4848  18.5355  18.6106
    18.7837  19.5868  19.7505  19.9408  20.6329  21.0615  21.2286  21.4516
    22.1998  22.2922

          k = 0.1291 0.2236 0.0000 ( 18219 PWs)   bands (ev):

   -74.1506 -38.3673 -38.3625 -38.2734 -14.0747 -12.9329  -5.5829  -4.3996
    -3.5417  -3.0389  -2.3462  -1.3643  -0.7347   2.0283   2.5357   2.6672
     3.9806   6.0823   6.2828   7.1506   7.9400   8.4916   9.0154   9.7148
     9.9441  10.8156  11.4842  11.9546  12.5997  12.6412  12.8034  14.0900
    14.4586  15.9348  16.4090  16.9998  18.1684  18.2436  18.3333  18.4311
    18.5222  19.3188  19.4773  20.1328  20.4301  20.8081  21.2957  21.4035
    21.9920  22.1731

          k = 0.1359 0.2354 0.0000 ( 18219 PWs)   bands (ev):

   -74.1500 -38.3781 -38.3602 -38.2775 -14.0019 -12.9061  -5.5198  -4.4875
    -3.6182  -3.1477  -2.3231  -1.3757  -0.7900   1.9950   2.5479   2.6967
     4.0677   6.1797   6.3787   7.2530   8.0068   8.5667   9.0741   9.6430
    10.0105  10.8603  11.4626  11.9941  12.5656  12.6692  12.7373  14.1355
    14.4895  15.9598  16.4243  17.0910  17.9313  18.0074  18.1379  18.2861
    18.5285  19.0492  19.2137  20.0551  20.4230  20.6389  21.2857  21.3412
    21.7657  22.1658

          k = 0.1427 0.2472 0.0000 ( 18213 PWs)   bands (ev):

   -74.1494 -38.3888 -38.3580 -38.2819 -13.9272 -12.8785  -5.4632  -4.5654
    -3.6985  -3.2499  -2.3099  -1.3906  -0.8401   1.9662   2.5676   2.7299
     4.1518   6.2805   6.4783   7.3570   8.0348   8.6409   9.1659   9.5769
    10.0817  10.8988  11.4245  12.0345  12.3633  12.7507  12.7922  14.2085
    14.5211  15.9918  16.4327  17.1633  17.6699  17.7447  17.9245  18.1147
    18.6589  18.7828  18.9840  19.8474  20.2383  20.7855  21.1343  21.3158
    21.5557  22.2427

          k = 0.1495 0.2590 0.0000 ( 18193 PWs)   bands (ev):

   -74.1488 -38.3994 -38.3557 -38.2865 -13.8509 -12.8504  -5.4168  -4.6295
    -3.7846  -3.3424  -2.3082  -1.4090  -0.8833   1.9430   2.5939   2.7665
     4.2323   6.3845   6.5813   7.4622   8.0297   8.7125   9.2824   9.5213
    10.1576  10.9322  11.3658  12.0748  12.1654  12.8422  12.8507  14.3020
    14.5468  16.0308  16.4339  17.2020  17.4127  17.4820  17.6946  18.0234
    18.5112  18.6064  18.9615  19.6402  19.9963  20.9154  20.9963  21.2989
    21.3520  22.3588

          k = 0.1563 0.2707 0.0000 ( 18187 PWs)   bands (ev):

   -74.1482 -38.4098 -38.3535 -38.2912 -13.7733 -12.8218  -5.3856  -4.6750
    -3.8780  -3.4229  -2.3195  -1.4308  -0.9180   1.9266   2.6257   2.8060
     4.3087   6.4916   6.6877   7.5668   8.0016   8.7789   9.4118   9.4802
    10.2387  10.9634  11.2775  11.9982  12.1133  12.9037  12.9419  14.4110
    14.5593  16.0760  16.4283  17.1642  17.1872  17.2233  17.4805  17.9998
    18.2513  18.3798  19.1155  19.4490  19.7557  20.6737  21.1487  21.1970
    21.2830  22.1817

          k = 0.1631 0.2825 0.0000 ( 18201 PWs)   bands (ev):

   -74.1476 -38.4199 -38.3512 -38.2962 -13.6946 -12.7928  -5.3740  -4.6976
    -3.9790  -3.4906  -2.3445  -1.4559  -0.9434   1.9180   2.6620   2.8479
     4.3806   6.6014   6.7972   7.6646   7.9642   8.8374   9.4578   9.5420
    10.3250  10.9953  11.1521  11.8790  12.1484  12.9493  13.0486  14.5306
    14.5515  16.1238  16.4157  16.9299  16.9704  17.0831  17.3335  17.9967
    18.0257  18.1380  19.2785  19.2915  19.5257  20.4261  20.9462  21.2666
    21.3733  21.9774

          k = 0.1699 0.2943 0.0000 ( 18205 PWs)   bands (ev):

   -74.1470 -38.4296 -38.3490 -38.3013 -13.6153 -12.7635  -5.3832  -4.6961
    -4.0863  -3.5459  -2.3831  -1.4844  -0.9596   1.9181   2.7014   2.8917
     4.4475   6.7135   6.9096   7.7306   7.9482   8.8852   9.4579   9.6613
    10.4155  10.9988  11.0307  11.8097  12.1787  12.9881  13.1608  14.5182
    14.6548  16.1629  16.3929  16.7211  16.7259  16.8968  17.2676  17.7501
    17.8988  18.0752  19.1257  19.3205  19.4661  20.1812  20.7477  21.2485
    21.5076  21.7990

          k = 0.1767 0.3060 0.0000 ( 18203 PWs)   bands (ev):

   -74.1464 -38.4389 -38.3468 -38.3067 -13.5356 -12.7342  -5.4102  -4.6738
    -4.1981  -3.5900  -2.4344  -1.5162  -0.9672   1.9275   2.7429   2.9368
     4.5092   6.8272   7.0247   7.7203   8.0019   8.9214   9.4822   9.7561
    10.5047  10.8467  11.0718  11.7787  12.2033  13.0221  13.2774  14.4573
    14.7749  16.1588  16.3510  16.4882  16.5768  16.6937  17.2381  17.5146
    17.6661  18.1221  18.9650  19.1785  19.6186  19.9529  20.5600  21.2269
    21.5178  21.7241

          k = 0.1835 0.3178 0.0000 ( 18203 PWs)   bands (ev):

   -74.1458 -38.4477 -38.3446 -38.3122 -13.4559 -12.7047  -5.4493  -4.6365
    -4.3125  -3.6245  -2.4971  -1.5511  -0.9671   1.9466   2.7853   2.9825
     4.5658   6.9412   7.1423   7.6591   8.1034   8.9483   9.5292   9.8066
    10.5637  10.7559  11.1200  11.7734  12.2218  13.0546  13.3972  14.3698
    14.8779  16.0623  16.2699  16.2707  16.5092  16.5363  17.2310  17.2958
    17.4432  18.1453  18.7787  19.1307  19.6214  19.8504  20.4016  21.2000
    21.3866  21.7643

          k = 0.1903 0.3296 0.0000 ( 18205 PWs)   bands (ev):

   -74.1452 -38.4561 -38.3425 -38.3179 -13.3766 -12.6754  -5.4948  -4.5903
    -4.4276  -3.6506  -2.5694  -1.5890  -0.9604   1.9752   2.8273   3.0282
     4.6175   7.0526   7.2621   7.5833   8.2205   8.9707   9.5950   9.7891
    10.5561  10.7945  11.1760  11.7854  12.2343  13.0892  13.5189  14.2592
    14.9444  15.8951  16.0872  16.1318  16.3642  16.5583  17.1068  17.2371
    17.2414  18.1354  18.5873  19.1615  19.4218  19.8692  20.3290  21.1664
    21.2445  21.7806

          k = 0.1971 0.3414 0.0000 ( 18173 PWs)   bands (ev):

   -74.1447 -38.4638 -38.3405 -38.3237 -13.2981 -12.6463  -5.5425  -4.5421
    -4.5395  -3.6692  -2.6496  -1.6298  -0.9481   2.0126   2.8679   3.0730
     4.6646   7.1528   7.3838   7.5115   8.3428   8.9934   9.6752   9.7000
    10.5663  10.8870  11.2397  11.8093  12.2413  13.1300  13.6409  14.1304
    14.9517  15.6956  15.9527  15.9589  16.2416  16.5565  16.9655  17.0777
    17.2595  18.0964  18.4067  19.2020  19.2491  19.7801  20.3872  21.1162
    21.1256  21.7358

          k = 0.2039 0.3531 0.0000 ( 18163 PWs)   bands (ev):

   -74.1441 -38.4709 -38.3385 -38.3297 -13.2207 -12.6176  -5.5892  -4.6549
    -4.4876  -3.6811  -2.7360  -1.6732  -0.9308   2.0575   2.9064   3.1162
     4.7077   7.2131   7.4760   7.5071   8.4651   9.0205   9.5687   9.7665
    10.6183  10.9849  11.3102  11.8421  12.2437  13.1808  13.7605  13.9888
    14.8893  15.4839  15.7634  15.8737  16.1157  16.4727  16.8386  17.0540
    17.2704  18.0370  18.2482  18.9873  19.3735  19.6275  20.5016  21.0068
    21.0801  21.6308

          k = 0.2107 0.3649 0.0000 ( 18150 PWs)   bands (ev):

   -74.1436 -38.4774 -38.3366 -38.3359 -13.1449 -12.5894  -5.6328  -4.7651
    -4.4367  -3.6868  -2.8274  -1.7191  -0.9089   2.1081   2.9425   3.1570
     4.7477   7.1920   7.5194   7.6317   8.5802   9.0548   9.4311   9.8665
    10.6963  11.0764  11.3856  11.8820  12.2433  13.2444  13.8252  13.8885
    14.7701  15.2701  15.5772  15.7914  15.9796  16.3315  16.7433  17.1352
    17.2569  17.9599  18.1260  18.7830  19.4594  19.5181  20.6057  20.9188
    21.0403  21.4977

          k = 0.2175 0.3767 0.0000 ( 18138 PWs)   bands (ev):

   -74.1431 -38.4831 -38.3422 -38.3348 -13.0711 -12.5618  -5.6720  -4.8719
    -4.3886  -3.6869  -2.9224  -1.7672  -0.8825   2.1616   2.9764   3.1945
     4.7854   7.1207   7.6102   7.7569   8.6730   9.0983   9.3211   9.9736
    10.7890  11.1562  11.4631  11.9281  12.2428  13.3228  13.6747  13.9894
    14.6171  15.0586  15.4004  15.6790  15.8341  16.1645  16.7143  17.2060
    17.2533  17.8633  18.0516  18.5934  19.2919  19.6681  20.6527  20.8549
    21.0308  21.3592

          k = 0.2243 0.3884 0.0000 ( 18136 PWs)   bands (ev):

   -74.1427 -38.4882 -38.3486 -38.3331 -12.9997 -12.5350  -5.7057  -4.9749
    -4.3444  -3.6817  -3.0199  -1.8172  -0.8514   2.2142   3.0094   3.2278
     4.8218   7.0357   7.7089   7.8823   8.7163   9.1521   9.2787  10.0866
    10.8908  11.2218  11.5384  11.9796  12.2462  13.4168  13.5143  14.0826
    14.4480  14.8511  15.2387  15.5338  15.6821  15.9847  16.7384  17.1176
    17.3801  17.7552  18.0134  18.4247  19.1324  19.8082  20.6184  20.8183
    21.0613  21.2235

          k = 0.2311 0.4002 0.0000 ( 18158 PWs)   bands (ev):

   -74.1422 -38.4925 -38.3551 -38.3314 -12.9311 -12.5090  -5.7330  -5.0734
    -4.3051  -3.6717  -3.1191  -1.8688  -0.8156   2.2613   3.0439   3.2564
     4.8581   6.9488   7.7973   8.0071   8.7010   9.2170   9.3255  10.2044
    10.9988  11.2731  11.6054  12.0352  12.2592  13.3530  13.5257  14.1520
    14.2735  14.6486  15.0998  15.3687  15.5270  15.8001  16.7853  17.0027
    17.4958  17.6425  17.9917  18.2867  18.9876  19.9202  20.5276  20.8111
    21.0925  21.0948

          k = 0.2379 0.4120 0.0000 ( 18162 PWs)   bands (ev):

   -74.1418 -38.4960 -38.3617 -38.3299 -12.8656 -12.4842  -5.7534  -5.1670
    -4.2713  -3.6572  -3.2190  -1.9217  -0.7749   2.2975   3.0833   3.2796
     4.8950   6.8642   7.8590   8.1306   8.6691   9.2936   9.4351  10.3257
    11.1101  11.3130  11.6578  12.0928  12.2878  13.1930  13.6476  14.1002
    14.1831  14.4521  14.9937  15.1952  15.3724  15.6155  16.8288  16.8744
    17.5264  17.5785  17.9725  18.1939  18.8656  19.9881  20.4065  20.8159
    20.9915  21.0856

          k = 0.2447 0.4238 0.0000 ( 18162 PWs)   bands (ev):

   -74.1414 -38.4988 -38.3685 -38.3285 -12.8037 -12.4605  -5.7664  -5.2553
    -4.2438  -3.6386  -3.3187  -1.9754  -0.7293   2.3177   3.1309   3.2971
     4.9333   6.7840   7.8772   8.2520   8.6682   9.3820   9.5768  10.4489
    11.2176  11.3496  11.6917  12.1495  12.3358  13.0365  13.7771  13.9340
    14.1639  14.2641  14.9254  15.0204  15.2244  15.4334  16.7434  16.8488
    17.4073  17.6096  17.9487  18.1553  18.7777  20.0066  20.2665  20.7533
    20.9860  21.0275

          k = 0.2514 0.4355 0.0000 ( 18184 PWs)   bands (ev):

   -74.1411 -38.5007 -38.3753 -38.3271 -12.7457 -12.4381  -5.7716  -5.3380
    -4.2230  -3.6165  -3.4170  -2.0296  -0.6789   2.3184   3.1892   3.3088
     4.9734   6.7095   7.8475   8.3704   8.7178   9.4822   9.7357  10.5714
    11.2966  11.4091  11.7087  12.2023  12.4005  12.8865  13.7660  13.9073
    14.0961  14.1015  14.8487  14.8756  15.0984  15.2553  16.6171  16.8330
    17.2860  17.5936  17.9189  18.1555  18.7333  19.9832  20.1128  20.6321
    20.9294  21.0584

          k = 0.2582 0.4473 0.0000 ( 18182 PWs)   bands (ev):

   -74.1407 -38.5019 -38.3821 -38.3259 -12.6919 -12.4171  -5.7690  -5.4147
    -4.2097  -3.5912  -3.5127  -2.0837  -0.6241   2.2987   3.2582   3.3149
     5.0154   6.6414   7.7825   8.4849   8.8109   9.5938   9.9054  10.6898
    11.3295  11.5092  11.7158  12.2488  12.4691  12.7508  13.6189  13.8582
    13.9959  14.1218  14.6837  14.7952  15.0254  15.0825  16.5007  16.7802
    17.1635  17.5465  17.8865  18.1710  18.7283  19.9290  19.9493  20.5000
    20.8155  21.1554

          k = 0.2650 0.4591 0.0000 ( 18176 PWs)   bands (ev):

   -74.1404 -38.5023 -38.3890 -38.3248 -12.6426 -12.3977  -5.7583  -5.4853
    -4.2050  -3.6040  -3.5634  -2.1372  -0.5655   2.2604   3.3158   3.3360
     5.0593   6.5804   7.6989   8.5946   8.9328   9.7162  10.0826  10.7991
    11.3440  11.6201  11.7230  12.2888  12.4927  12.6706  13.4824  13.6979
    13.8810  14.2636  14.5307  14.6726  14.9166  14.9987  16.3969  16.6987
    17.0412  17.4748  17.8575  18.1960  18.7396  19.7834  19.8528  20.3682
    20.7087  21.2668

          k = 0.2718 0.4708 0.0000 ( 18156 PWs)   bands (ev):

   -74.1402 -38.5019 -38.3959 -38.3238 -12.5980 -12.3799  -5.7398  -5.5494
    -4.2101  -3.6886  -3.5337  -2.1896  -0.5040   2.2068   3.3121   3.4195
     5.1045   6.5274   7.6077   8.6983   9.0726   9.8485  10.2651  10.8927
    11.3535  11.7225  11.7400  12.3263  12.4101  12.6989  13.3588  13.5353
    13.7653  14.3424  14.4600  14.5359  14.7630  14.9801  16.3060  16.6004
    16.9202  17.3815  17.8400  18.2301  18.7374  19.6295  19.7609  20.2400
    20.6238  21.3912

          k = 0.2786 0.4826 0.0000 ( 18152 PWs)   bands (ev):

   -74.1399 -38.5008 -38.4028 -38.3230 -12.5582 -12.3638  -5.7138  -5.6069
    -4.2269  -3.7636  -3.5029  -2.2402  -0.4408   2.1421   3.3047   3.5049
     5.1501   6.4833   7.5147   8.7950   9.2235   9.9894  10.4507  10.9651
    11.3621  11.7719  11.8012  12.3017  12.3711  12.7478  13.2465  13.3806
    13.6602  14.2276  14.3985  14.5296  14.6855  14.9545  16.2252  16.4952
    16.8016  17.2725  17.8416  18.2673  18.6965  19.5082  19.6578  20.1168
    20.5663  21.5279

          k = 0.2854 0.4944 0.0000 ( 18152 PWs)   bands (ev):

   -74.1397 -38.4990 -38.4097 -38.3222 -12.5234 -12.3496  -5.6808  -5.6577
    -4.2569  -3.8262  -3.4717  -2.2882  -0.3773   2.0706   3.2945   3.5886
     5.1954   6.4491   7.4227   8.8833   9.3808  10.1375  10.6362  11.0147
    11.3727  11.8097  11.8429  12.2146  12.4353  12.7706  13.1387  13.2413
    13.5755  14.1064  14.2657  14.4216  14.8129  14.9225  16.1504  16.3904
    16.6862  17.1543  17.8685  18.2984  18.6064  19.4351  19.5471  19.9987
    20.5357  21.6759

          k = 0.2922 0.5061 0.0000 ( 18160 PWs)   bands (ev):

   -74.1396 -38.4966 -38.4165 -38.3216 -12.4937 -12.3372  -5.7016  -5.6419
    -4.2998  -3.8749  -3.4411  -2.3327  -0.3153   1.9965   3.2824   3.6674
     5.2389   6.4263   7.3330   8.9617   9.5402  10.2906  10.8159  11.0463
    11.3890  11.8166  11.8460  12.1891  12.5205  12.7514  13.0228  13.1312
    13.5156  13.9962  14.1404  14.2848  14.8918  14.9758  16.0779  16.2914
    16.5747  17.0321  17.9234  18.3153  18.4803  19.4080  19.4322  19.8857
    20.5282  21.8335

          k = 0.2990 0.5179 0.0000 ( 18166 PWs)   bands (ev):

   -74.1394 -38.4936 -38.4231 -38.3210 -12.4689 -12.3268  -5.7386  -5.5985
    -4.3528  -3.9108  -3.4123  -2.3728  -0.2568   1.9241   3.2696   3.7383
     5.2796   6.4158   7.2463   9.0287   9.6972  10.4461  10.9782  11.0687
    11.4181  11.7643  11.8239  12.2485  12.6087  12.6903  12.8972  13.0607
    13.4728  13.8978  14.0252  14.1505  14.8722  15.1368  16.0070  16.2033
    16.4679  16.9096  18.0054  18.2983  18.3589  19.3163  19.4116  19.7775
    20.5393  21.8260

          k = 0.3058 0.5297 0.0000 ( 18128 PWs)   bands (ev):

   -74.1393 -38.4901 -38.4295 -38.3206 -12.4490 -12.3183  -5.7688  -5.5529
    -4.4106  -3.9364  -3.3864  -2.4075  -0.2043   1.8576   3.2571   3.7987
     5.3159   6.4183   7.1633   9.0831   9.8456  10.6001  11.0903  11.1038
    11.4672  11.6788  11.8018  12.3592  12.6003  12.6598  12.7734  13.0480
    13.4317  13.8104  13.9215  14.0212  14.8714  15.2852  15.9402  16.1332
    16.3668  16.7896  18.1104  18.1876  18.3246  19.2025  19.4310  19.6746
    20.5648  21.7375

          k = 0.3126 0.5415 0.0000 ( 18130 PWs)   bands (ev):

   -74.1392 -38.4863 -38.4354 -38.3203 -12.4339 -12.3117  -5.7920  -5.5082
    -4.4669  -3.9545  -3.3647  -2.4357  -0.1601   1.8007   3.2457   3.8467
     5.3466   6.4333   7.0857   9.1241   9.9774  10.7467  11.1168  11.1822
    11.5136  11.5857  11.8248  12.4786  12.5068  12.6229  12.6748  13.1130
    13.3834  13.7334  13.8295  13.8968  14.8900  15.4084  15.8832  16.0915
    16.2731  16.6742  18.0745  18.2308  18.3050  19.0949  19.4547  19.5785
    20.6003  21.6543

          k = 0.3194 0.5532 0.0000 ( 18122 PWs)   bands (ev):

   -74.1391 -38.4826 -38.4407 -38.3200 -12.4233 -12.3070  -5.8085  -5.4691
    -4.5149  -3.9671  -3.3483  -2.4565  -0.1266   1.7572   3.2365   3.8812
     5.3701   6.4577   7.0168   9.1518  10.0822  10.8756  11.1502  11.2308
    11.4976  11.5101  11.9303  12.3961  12.5173  12.6073  12.6139  13.2282
    13.3329  13.6670  13.7493  13.7766  14.9201  15.4913  15.8439  16.0908
    16.1895  16.5662  17.9888  18.2848  18.3542  19.0002  19.4749  19.4925
    20.6393  21.5834

          k = 0.3262 0.5650 0.0000 ( 18136 PWs)   bands (ev):

   -74.1391 -38.4796 -38.4446 -38.3199 -12.4172 -12.3043  -5.8184  -5.4411
    -4.5480  -3.9749  -3.3381  -2.4692  -0.1056   1.7296   3.2303   3.9017
     5.3853   6.4839   6.9643   9.1672  10.1497  10.9693  11.1877  11.2713
    11.4259  11.4736  12.0786  12.3197  12.4128  12.5383  12.7069  13.2977
    13.3604  13.6119  13.6631  13.6855  14.9474  15.5288  15.8287  16.1230
    16.1288  16.4738  17.9368  18.2685  18.4561  18.9327  19.4245  19.4876
    20.6722  21.5338

          k = 0.3330 0.5768 0.0000 ( 18142 PWs)   bands (ev):

   -74.1391 -38.4783 -38.4462 -38.3199 -12.4150 -12.3033  -5.8218  -5.4301
    -4.5606  -3.9779  -3.3345  -2.4736  -0.0981   1.7197   3.2279   3.9088
     5.3909   6.4975   6.9417   9.1721  10.1736  11.0053  11.2122  11.2971
    11.3914  11.4463  12.1752  12.2876  12.3578  12.4909  12.7424  13.2896
    13.4599  13.5725  13.5906  13.6552  14.9588  15.5365  15.8302  16.0914
    16.1615  16.4268  17.9191  18.2614  18.4984  18.9105  19.3928  19.4918
    20.6866  21.5145

          k = 0.3388 0.5668 0.0000 ( 18130 PWs)   bands (ev):

   -74.1391 -38.4793 -38.4450 -38.3199 -12.4164 -12.3039  -5.8195  -5.4381
    -4.5520  -3.9754  -3.3369  -2.4707  -0.1031   1.7264   3.2297   3.9042
     5.3869   6.4855   6.9596   9.1693  10.1585  10.9844  11.1858  11.2722
    11.4181  11.4714  12.1228  12.3119  12.3428  12.5609  12.7227  13.2841
    13.3958  13.5578  13.6782  13.6833  14.9514  15.5356  15.8212  16.1203
    16.1319  16.4625  17.9298  18.2675  18.4748  18.9120  19.4227  19.4896
    20.6754  21.5276

          k = 0.3445 0.5569 0.0000 ( 18128 PWs)   bands (ev):

   -74.1391 -38.4818 -38.4419 -38.3200 -12.4203 -12.3057  -5.8130  -5.4607
    -4.5286  -3.9671  -3.3435  -2.4628  -0.1168   1.7453   3.2352   3.8918
     5.3748   6.4516   7.0097   9.1624  10.1184  10.9348  11.1171  11.2165
    11.4779  11.5233  12.0341  12.2933  12.3797  12.6785  12.7065  13.2586
    13.3003  13.5488  13.7627  13.8094  14.9336  15.5372  15.7946  16.0668
    16.2011  16.5416  17.9572  18.2874  18.4233  18.8963  19.4846  19.5119
    20.6439  21.5616

          k = 0.3503 0.5470 0.0000 ( 18116 PWs)   bands (ev):

   -74.1392 -38.4854 -38.4374 -38.3201 -12.4263 -12.3086  -5.8025  -5.4958
    -4.4949  -3.9509  -3.3537  -2.4505  -0.1380   1.7752   3.2448   3.8725
     5.3547   6.4014   7.0853   9.1525  10.0590  10.8670  11.0225  11.1473
    11.5497  11.5768  11.9374  12.2384  12.4798  12.6280  12.8713  13.2021
    13.2174  13.5486  13.8744  13.9543  14.9125  15.5446  15.7593  15.9900
    16.3189  16.6382  17.9949  18.3232  18.3614  18.8588  19.4795  19.6472
    20.5963  21.6072

          k = 0.3560 0.5370 0.0000 ( 18128 PWs)   bands (ev):

   -74.1392 -38.4895 -38.4320 -38.3203 -12.4345 -12.3126  -5.7883  -5.5408
    -4.4566  -3.9239  -3.3669  -2.4347  -0.1654   1.8145   3.2587   3.8474
     5.3262   6.3413   7.1791   9.1411   9.9852  10.7816  10.9187  11.0705
    11.6173  11.6228  11.8380  12.1879  12.5502  12.6337  13.0442  13.1058
    13.1700  13.5547  13.9976  14.1124  14.8970  15.5573  15.7233  15.9111
    16.4605  16.7438  18.0365  18.2976  18.3755  18.8086  19.4773  19.8111
    20.5388  21.6524

          k = 0.3618 0.5271 0.0000 ( 18142 PWs)   bands (ev):

   -74.1393 -38.4939 -38.4261 -38.3205 -12.4444 -12.3174  -5.7705  -5.5927
    -4.4198  -3.8829  -3.3822  -2.4164  -0.1972   1.8616   3.2772   3.8175
     5.2896   6.2752   7.2860   9.1289   9.9009  10.6708  10.8237  10.9881
    11.6348  11.6893  11.7384  12.1468  12.5196  12.7665  13.0131  13.1228
    13.2233  13.5663  14.1155  14.2846  14.8982  15.5718  15.6905  15.8349
    16.6175  16.8570  18.0770  18.2367  18.4415  18.7525  19.4812  19.9922
    20.4778  21.6854

          k = 0.3676 0.5172 0.0000 ( 18158 PWs)   bands (ev):

   -74.1393 -38.4985 -38.4197 -38.3208 -12.4559 -12.3231  -5.7495  -5.6493
    -4.3892  -3.8257  -3.3989  -2.3963  -0.2322   1.9147   3.3006   3.7837
     5.2452   6.2056   7.4023   9.1167   9.8090  10.5351  10.7437  10.9014
    11.6135  11.6513  11.7414  12.1176  12.4961  12.9183  12.9261  13.0812
    13.4015  13.5887  14.2129  14.4708  14.9285  15.5809  15.6633  15.7676
    16.7839  16.9784  18.1135  18.1819  18.5155  18.6943  19.4933  20.1839
    20.4201  21.6971

          k = 0.3733 0.5072 0.0000 ( 18162 PWs)   bands (ev):

   -74.1394 -38.5030 -38.4132 -38.3211 -12.4688 -12.3295  -5.7257  -5.7088
    -4.3671  -3.7521  -3.4163  -2.3753  -0.2690   1.9723   3.3290   3.7470
     5.1935   6.1339   7.5257   9.1048   9.7118  10.3836  10.6737  10.8112
    11.5260  11.6070  11.7722  12.0979  12.4933  12.8456  13.0305  13.0942
    13.5295  13.6719  14.2794  14.6700  14.9967  15.5696  15.6443  15.7225
    16.9545  17.1085  18.1368  18.1441  18.5906  18.6360  19.5139  20.3737
    20.3816  21.6831

          k = 0.3791 0.4973 0.0000 ( 18176 PWs)   bands (ev):

   -74.1395 -38.5075 -38.4064 -38.3214 -12.4828 -12.3366  -5.7698  -5.6993
    -4.3535  -3.6635  -3.4338  -2.3542  -0.3065   2.0330   3.3626   3.7081
     5.1351   6.0610   7.6540   9.0935   9.6109  10.2232  10.6097  10.7182
    11.4272  11.5585  11.7790  12.0822  12.5100  12.7720  13.0174  13.2477
    13.5686  13.8549  14.3166  14.8803  15.0990  15.5263  15.6375  15.7100
    17.1229  17.2471  18.1065  18.1674  18.5789  18.6604  19.5395  20.3485
    20.5808  21.6446

          k = 0.3848 0.4874 0.0000 ( 18170 PWs)   bands (ev):

   -74.1396 -38.5119 -38.3996 -38.3218 -12.4977 -12.3442  -5.8312  -5.6708
    -4.3471  -3.5625  -3.4508  -2.3334  -0.3440   2.0953   3.4014   3.6677
     5.0707   5.9877   7.7852   9.0828   9.5080  10.0576  10.5499  10.6233
    11.3297  11.5014  11.7650  12.0651  12.5358  12.7052  13.0172  13.4061
    13.5899  14.0668  14.3371  15.0989  15.2167  15.4646  15.6518  15.7173
    17.2800  17.3920  18.0993  18.1835  18.5237  18.7203  19.5637  20.3555
    20.7738  21.5860

          k = 0.3906 0.4774 0.0000 ( 18160 PWs)   bands (ev):

   -74.1397 -38.5163 -38.3927 -38.3221 -12.5134 -12.3523  -5.8922  -5.6405
    -4.3463  -3.4669  -3.4519  -2.3135  -0.3808   2.1583   3.4455   3.6265
     5.0013   5.9142   7.9174   9.0726   9.4050   9.8889  10.4939  10.5275
    11.2355  11.4399  11.7366  12.0438  12.5564  12.6445  13.0445  13.5564
    13.6104  14.2904  14.3564  15.3153  15.3215  15.4037  15.7048  15.7343
    17.4118  17.5377  18.1283  18.1960  18.4709  18.7660  19.5815  20.4021
    20.9428  21.5133

          k = 0.3963 0.4675 0.0000 ( 18166 PWs)   bands (ev):

   -74.1398 -38.5205 -38.3859 -38.3225 -12.5295 -12.3606  -5.9523  -5.6088
    -4.3496  -3.4818  -3.3338  -2.2949  -0.4165   2.2207   3.4947   3.5851
     4.9277   5.8411   8.0476   9.0627   9.3041   9.7187  10.4319  10.4412
    11.1459  11.3770  11.6997  12.0174  12.5627  12.5887  13.1019  13.6333
    13.6896  14.3899  14.5217  15.3211  15.3887  15.5421  15.7711  15.8134
    17.5044  17.6720  18.2066  18.2149  18.4214  18.7935  19.5954  20.4869
    21.0439  21.4325

          k = 0.4021 0.4576 0.0000 ( 18166 PWs)   bands (ev):

   -74.1399 -38.5245 -38.3791 -38.3229 -12.5460 -12.3692  -6.0109  -5.5762
    -4.3558  -3.4950  -3.2101  -2.2779  -0.4510   2.2818   3.5439   3.5489
     4.8510   5.7686   8.1718   9.0528   9.2096   9.5482  10.3380  10.3916
    11.0616  11.3147  11.6586  11.9863  12.5366  12.5545  13.1834  13.6589
    13.7964  14.4518  14.7576  15.2558  15.4225  15.6749  15.8947  15.9680
    17.5565  17.7725  18.2603  18.3272  18.3835  18.7997  19.6140  20.5992
    21.0346  21.3507

          k = 0.4079 0.4476 0.0000 ( 18156 PWs)   bands (ev):

   -74.1400 -38.5283 -38.3725 -38.3233 -12.5626 -12.3779  -6.0677  -5.5430
    -4.3642  -3.5064  -3.0824  -2.2627  -0.4841   2.3408   3.5034   3.6080
     4.7722   5.6971   8.2825   9.0423   9.1284   9.3788  10.2473  10.3452
    10.9829  11.2542  11.6162  11.9516  12.4869  12.5367  13.2791  13.6873
    13.8728  14.5497  14.9864  15.2022  15.4402  15.7189  16.1168  16.1476
    17.5810  17.8176  18.3240  18.3480  18.5104  18.7885  19.6452  20.7202
    20.9521  21.2789

          k = 0.4136 0.4377 0.0000 ( 18154 PWs)   bands (ev):

   -74.1401 -38.5320 -38.3660 -38.3237 -12.5791 -12.3867  -6.1223  -5.5097
    -4.3740  -3.5157  -2.9520  -2.2496  -0.5160   2.3970   3.4641   3.6715
     4.6923   5.6268   8.3671   9.0290   9.0731   9.2136  10.1613  10.3017
    10.9100  11.1960  11.5743  11.9149  12.4385  12.5135  13.3788  13.7177
    13.9268  14.6800  15.0773  15.2905  15.4519  15.7454  16.3386  16.3665
    17.5930  17.8122  18.2849  18.4512  18.6987  18.7838  19.6915  20.8174
    20.8433  21.2407

          k = 0.4194 0.4278 0.0000 ( 18148 PWs)   bands (ev):

   -74.1402 -38.5355 -38.3597 -38.3241 -12.5954 -12.3953  -6.1745  -5.4767
    -4.3849  -3.5229  -2.8198  -2.2386  -0.5468   2.4498   3.4264   3.7392
     4.6123   5.5581   8.4084   8.9913   9.0606   9.0745  10.0818  10.2612
    10.8429  11.1408  11.5338  11.8771  12.3907  12.4879  13.4720  13.7493
    13.9743  14.8325  15.0252  15.4621  15.5209  15.7770  16.5326  16.6263
    17.6031  17.7760  18.2491  18.4918  18.8490  18.8992  19.7507  20.7279
    20.8453  21.2703

          k = 0.4251 0.4178 0.0000 ( 18144 PWs)   bands (ev):

   -74.1403 -38.5388 -38.3537 -38.3245 -12.6112 -12.4038  -6.2239  -5.4445
    -4.3962  -3.5278  -2.6870  -2.2298  -0.5768   2.4987   3.3906   3.8104
     4.5333   5.4912   8.3980   8.8597   9.0321   9.0984  10.0107  10.2236
    10.7814  11.0887  11.4955  11.8394  12.3429  12.4616  13.5485  13.7813
    14.0314  14.9606  14.9974  15.4734  15.7207  15.8596  16.7223  16.8924
    17.6189  17.7233  18.2189  18.4462  18.9989  19.1020  19.8194  20.6156
    20.8058  21.3338

          k = 0.4309 0.4079 0.0000 ( 18150 PWs)   bands (ev):

   -74.1404 -38.5419 -38.3480 -38.3249 -12.6266 -12.4120  -6.2704  -5.4133
    -4.4078  -3.5305  -2.5544  -2.2231  -0.6065   2.5432   3.3571   3.8845
     4.4561   5.4264   8.3478   8.7030   9.0183   9.1730   9.9508  10.1889
    10.7254  11.0398  11.4597  11.8025  12.2949  12.4358  13.6013  13.8126
    14.1084  14.8945  15.1656  15.4894  15.7954  16.0784  16.8986  17.1631
    17.6470  17.6619  18.1973  18.3611  19.1823  19.2971  19.8953  20.5150
    20.7382  21.1401

          k = 0.4367 0.3980 0.0000 ( 18134 PWs)   bands (ev):

   -74.1405 -38.5448 -38.3426 -38.3252 -12.6412 -12.4199  -6.3138  -5.3837
    -4.4194  -3.5311  -2.4228  -2.2183  -0.6363   2.5831   3.3263   3.9606
     4.3820   5.3642   8.2764   8.5473   9.0080   9.2621   9.9064  10.1569
    10.6746  10.9944  11.4266  11.7670  12.2464  12.4109  13.6314  13.8424
    14.2063  14.8287  15.3204  15.5233  15.8416  16.3355  17.0499  17.4368
    17.5971  17.6923  18.1906  18.2600  19.3712  19.4689  19.9791  20.4372
    20.6635  20.9498

          k = 0.4424 0.3880 0.0000 ( 18138 PWs)   bands (ev):

   -74.1406 -38.5474 -38.3376 -38.3256 -12.6550 -12.4274  -6.3539  -5.3557
    -4.4306  -3.5298  -2.2932  -2.2154  -0.6667   2.6180   3.2984   4.0372
     4.3123   5.3049   8.1965   8.3962   8.9987   9.3461   9.8851  10.1277
    10.6289  10.9523  11.3965  11.7334  12.1974  12.3875  13.6449  13.8702
    14.3189  14.7639  15.4156  15.6185  15.8906  16.5981  17.1654  17.5312
    17.7118  17.7511  18.1543  18.2125  19.5488  19.5915  20.0757  20.3920
    20.5906  20.7839

          k = 0.4482 0.3781 0.0000 ( 18148 PWs)   bands (ev):

   -74.1407 -38.5498 -38.3329 -38.3259 -12.6679 -12.4344  -6.3906  -5.3299
    -4.4414  -3.5267  -2.2142  -2.1663  -0.6982   2.6480   3.2736   4.1106
     4.2507   5.2490   8.1155   8.2512   8.9900   9.4079   9.8967  10.1013
    10.5883  10.9136  11.3692  11.7019  12.1480  12.3659  13.6483  13.8953
    14.4396  14.7008  15.4479  15.7760  15.9466  16.8576  17.2439  17.4732
    17.8025  17.9409  18.0922  18.2833  19.6393  19.6984  20.1927  20.3464
    20.5252  20.7052

          k = 0.4539 0.3682 0.0000 ( 18158 PWs)   bands (ev):

   -74.1408 -38.5520 -38.3286 -38.3262 -12.6797 -12.4408  -6.4238  -5.3063
    -4.4515  -3.5223  -2.2144  -2.0430  -0.7313   2.6729   3.2521   4.1498
     4.2273   5.1970   8.0374   8.1138   8.9819   9.4384   9.9460  10.0776
    10.5527  10.8782  11.3449  11.6728  12.0984  12.3462  13.6462  13.9174
    14.5631  14.6403  15.4597  15.9512  16.0107  17.0932  17.2943  17.4405
    17.8265  17.8945  18.3089  18.4118  19.6149  19.8088  20.2356  20.3218
    20.4812  20.7804

          k = 0.4597 0.3582 0.0000 ( 18158 PWs)   bands (ev):

   -74.1409 -38.5539 -38.3265 -38.3248 -12.6903 -12.4466  -6.4533  -5.2852
    -4.4608  -3.5168  -2.2156  -1.9242  -0.7666   2.6931   3.2340   4.1128
     4.2836   5.1493   7.9650   7.9857   8.9745   9.4430  10.0242  10.0567
    10.5224  10.8457  11.3235  11.6462  12.0491  12.3285  13.6413  13.9363
    14.5832  14.6856  15.4641  16.0830  16.1285  17.2166  17.3280  17.5115
    17.7972  17.8255  18.5809  18.5910  19.5425  19.8823  20.0999  20.3663
    20.5378  20.9498

          k = 0.4654 0.3483 0.0000 ( 18138 PWs)   bands (ev):

   -74.1409 -38.5556 -38.3267 -38.3215 -12.6997 -12.4517  -6.4790  -5.2668
    -4.4691  -3.5108  -2.2176  -1.8108  -0.8043   2.7089   3.2190   4.0661
     4.3519   5.1066   7.8684   7.8999   8.9678   9.4334  10.0385  10.1165
    10.4978  10.8160  11.3050  11.6221  12.0009  12.3130  13.6353  13.9521
    14.5305  14.8040  15.4638  16.1633  16.3019  17.2050  17.3528  17.5948
    17.8101  17.8228  18.7656  18.8798  19.4409  19.9290  19.9852  20.3355
    20.6269  21.1445

          k = 0.4712 0.3383 0.0000 ( 18132 PWs)   bands (ev):

   -74.1410 -38.5570 -38.3269 -38.3186 -12.7078 -12.4562  -6.5010  -5.2511
    -4.4763  -3.5047  -2.2201  -1.7040  -0.8447   2.7208   3.2071   4.0241
     4.4166   5.0694   7.7639   7.8433   8.9619   9.4184  10.0231  10.2102
    10.4803  10.7884  11.2894  11.6005  11.9548  12.2998  13.6292  13.9649
    14.4834  14.9157  15.4590  16.2512  16.4665  17.1601  17.3744  17.5119
    17.7876  18.0527  18.9390  19.1704  19.3244  19.9166  19.9574  20.3031
    20.5911  21.2318

          k = 0.4770 0.3284 0.0000 ( 18122 PWs)   bands (ev):

   -74.1410 -38.5582 -38.3271 -38.3162 -12.7145 -12.4598  -6.5190  -5.2381
    -4.4823  -3.4988  -2.2227  -1.6052  -0.8874   2.7294   3.1980   3.9886
     4.4742   5.0381   7.6742   7.7960   8.9569   9.4029  10.0105  10.2938
    10.4743  10.7622  11.2767  11.5815  11.9124  12.2888  13.6236  13.9749
    14.4430  15.0184  15.4495  16.3458  16.6163  17.1061  17.3969  17.4114
    17.7622  18.3143  19.0478  19.2322  19.4587  19.9146  19.9737  20.2779
    20.4525  21.4110

          k = 0.4827 0.3185 0.0000 ( 18124 PWs)   bands (ev):

   -74.1411 -38.5591 -38.3272 -38.3144 -12.7198 -12.4627  -6.5331  -5.2280
    -4.4871  -3.4938  -2.2251  -1.5165  -0.9313   2.7352   3.1913   3.9605
     4.5220   5.0132   7.6015   7.7588   8.9530   9.3893  10.0006  10.3514
    10.4908  10.7360  11.2669  11.5654  11.8759  12.2803  13.6189  13.9823
    14.4103  15.1097  15.4346  16.4462  16.7434  17.0426  17.3230  17.4233
    17.7365  18.5777  18.9989  19.2485  19.7299  19.9839  19.9923  20.2575
    20.2865  21.4796

          k = 0.4885 0.3085 0.0000 ( 18132 PWs)   bands (ev):

   -74.1411 -38.5597 -38.3273 -38.3130 -12.7236 -12.4648  -6.5432  -5.2208
    -4.4906  -3.4899  -2.2271  -1.4420  -0.9732   2.7390   3.1868   3.9401
     4.5580   4.9952   7.5478   7.7319   8.9501   9.3789   9.9936  10.3744
    10.5348  10.7080  11.2599  11.5528  11.8476  12.2742  13.6154  13.9874
    14.3863  15.1874  15.4141  16.5510  16.8396  16.9640  17.2583  17.4543
    17.7125  18.8318  18.9011  19.2816  19.8790  19.9918  20.1345  20.1971
    20.2697  21.2895

          k = 0.4942 0.2986 0.0000 ( 18126 PWs)   bands (ev):

   -74.1411 -38.5601 -38.3274 -38.3122 -12.7259 -12.4661  -6.5492  -5.2165
    -4.4927  -3.4874  -2.2283  -1.3889  -1.0065   2.7410   3.1842   3.9278
     4.5804   4.9842   7.5149   7.7157   8.9483   9.3725   9.9894  10.3798
    10.5871  10.6760  11.2556  11.5446  11.8296  12.2705  13.6132  13.9903
    14.3716  15.2471  15.3897  16.6586  16.8701  16.8986  17.2213  17.4835
    17.6932  18.8284  19.0547  19.2950  19.7743  19.9828  20.2283  20.2923
    20.4429  21.0498

          k = 0.5000 0.2887 0.0000 ( 18126 PWs)   bands (ev):

   -74.1411 -38.5603 -38.3274 -38.3119 -12.7266 -12.4665  -6.5513  -5.2150
    -4.4934  -3.4865  -2.2287  -1.3689  -1.0199   2.7416   3.1833   3.9237
     4.5880   4.9805   7.5037   7.7102   8.9478   9.3703   9.9880  10.3806
    10.6263  10.6449  11.2542  11.5417  11.8234  12.2692  13.6125  13.9913
    14.3666  15.2737  15.3751  16.7653  16.7673  16.9183  17.2095  17.4965
    17.6851  18.8018  19.1651  19.2981  19.6840  19.9817  20.2296  20.3732
    20.6534  20.8247

[...]
    -4.5282  -3.1239  -2.0007  -1.7321  -1.2779   2.4434   2.4494   3.4799
     4.3120   6.5326   7.0739   7.1466   8.1102   8.2342   9.4029   9.6302
    10.9763  11.1995  11.9603  12.0473  12.9158  12.9910  13.8108  14.4394
    14.4658  14.8607  15.0145  15.5158  15.9293  16.7652  17.5307  17.9720
    18.3068  19.1770  19.3285  19.8812  20.4199  20.7211  20.8310  21.2729
    21.2822  21.7652

          k = 0.3163 0.1826 0.0000 ( 18194 PWs)   bands (ev):

   -74.1460 -38.4653 -38.3454 -38.2891 -13.4792 -12.7202  -5.7304  -4.6185
    -4.4545  -3.0817  -1.9721  -1.7757  -1.2551   2.4062   2.4320   3.4245
     4.2752   6.5475   7.0038   7.1576   8.0377   8.2540   9.3646   9.5568
    10.9338  11.2445  12.0095  12.0683  12.8797  12.9087  13.7031  14.4552
    14.6687  14.7145  15.0722  15.5989  15.9995  16.9551  17.5057  17.8889
    18.4643  19.3235  19.3424  19.9812  20.4294  20.8707  20.8806  21.3347
    21.3534  21.7876

          k = 0.3061 0.1767 0.0000 ( 18194 PWs)   bands (ev):

   -74.1465 -38.4557 -38.3472 -38.2868 -13.5459 -12.7437  -5.6711  -4.6380
    -4.3786  -3.0376  -1.9419  -1.8214  -1.2248   2.3656   2.4236   3.3671
     4.2357   6.5332   6.9286   7.1813   7.9738   8.2843   9.3306   9.4847
    10.8626  11.2899  11.9818  12.1675  12.8170  12.8615  13.5990  14.3712
    14.5791  14.9046  15.2203  15.6013  16.1688  17.1395  17.4760  17.8197
    18.6015  19.3654  19.4736  20.0870  20.4483  20.9332  21.0228  21.3897
    21.4391  21.7786

          k = 0.2959 0.1708 0.0000 ( 18183 PWs)   bands (ev):

   -74.1470 -38.4459 -38.3490 -38.2845 -13.6130 -12.7675  -5.6192  -4.6523
    -4.3008  -2.9917  -1.9103  -1.8687  -1.1874   2.3279   2.4184   3.3084
     4.1936   6.4968   6.8495   7.2079   7.9203   8.3219   9.2991   9.4167
    10.7690  11.3328  11.9612  12.2538  12.7195  12.8642  13.4990  14.2594
    14.4589  15.1379  15.4137  15.5807  16.3859  17.2884  17.4416  17.7946
    18.6998  19.4128  19.6245  20.1980  20.4796  20.9890  21.1757  21.4466
    21.5300  21.7365

          k = 0.2857 0.1650 0.0000 ( 18191 PWs)   bands (ev):

   -74.1475 -38.4359 -38.3509 -38.2821 -13.6802 -12.7914  -5.5775  -4.6581
    -4.2213  -2.9440  -1.9176  -1.8774  -1.1437   2.2934   2.4163   3.2489
     4.1488   6.4459   6.7680   7.2271   7.8792   8.3634   9.2677   9.3557
    10.6608  11.3704  11.9462  12.3222  12.6190  12.8861  13.4035  14.1431
    14.3589  15.3291  15.6017  15.6299  16.6242  17.3473  17.4024  17.8681
    18.7426  19.4990  19.7735  20.3141  20.5251  21.0482  21.3223  21.5042
    21.6260  21.6695

          k = 0.2755 0.1591 0.0000 ( 18201 PWs)   bands (ev):

   -74.1480 -38.4257 -38.3527 -38.2797 -13.7472 -12.8154  -5.5489  -4.6521
    -4.1404  -2.8946  -1.9678  -1.8434  -1.0944   2.2625   2.4175   3.1890
     4.1013   6.3855   6.6850   7.2317   7.8515   8.4039   9.2337   9.3058
    10.5456  11.3994  11.9377  12.3673  12.5180  12.9226  13.3128  14.0330
    14.2846  15.3864  15.7640  15.8594  16.8747  17.3182  17.3587  18.0386
    18.7304  19.6220  19.9169  20.4347  20.5862  21.1110  21.4137  21.5613
    21.6309  21.7273

          k = 0.2653 0.1532 0.0000 ( 18197 PWs)   bands (ev):

   -74.1485 -38.4154 -38.3547 -38.2772 -13.8138 -12.8393  -5.5357  -4.6318
    -4.0583  -2.8436  -2.0189  -1.8085  -1.0403   2.2355   2.4219   3.1295
     4.0514   6.3195   6.6015   7.2188   7.8357   8.4381   9.1950   9.2717
    10.4302  11.4158  11.9372  12.3844  12.4191  12.9679  13.2272  13.9350
    14.2406  15.3721  16.0086  16.0969  17.1337  17.2532  17.3105  18.2547
    18.6772  19.7660  20.0495  20.5596  20.6641  21.1776  21.3496  21.6159
    21.7288  21.8338

          k = 0.2551 0.1473 0.0000 ( 18195 PWs)   bands (ev):

   -74.1490 -38.4050 -38.3566 -38.2748 -13.8797 -12.8631  -5.5382  -4.5964
    -3.9753  -2.7912  -2.0709  -1.7731  -0.9824   2.2128   2.4294   3.0709
     3.9989   6.2499   6.5183   7.1893   7.8271   8.4597   9.1506   9.2586
    10.3203  11.4156  11.9465  12.3251  12.3711  13.0166  13.1471  13.8535
    14.2294  15.3485  16.2751  16.3370  17.1813  17.2582  17.3987  18.4900
    18.5980  19.9140  20.1615  20.6883  20.7603  21.2251  21.2481  21.6648
    21.8791  21.9455

          k = 0.2449 0.1414 0.0000 ( 18195 PWs)   bands (ev):

   -74.1496 -38.3946 -38.3585 -38.2723 -13.9448 -12.8866  -5.5552  -4.5466
    -3.8915  -2.7376  -2.1233  -1.7375  -0.9217   2.1949   2.4399   3.0139
     3.9441   6.1785   6.4359   7.1463   7.8186   8.4645   9.1019   9.2700
    10.2193  11.3952  11.9662  12.2388  12.3282  13.0643  13.0725  13.7918
    14.2503  15.3289  16.5512  16.5669  17.1227  17.2020  17.6667  18.5043
    18.7340  20.0535  20.2337  20.8204  20.8754  21.1103  21.3228  21.7025
    22.0275  22.0622

          k = 0.2347 0.1355 0.0000 ( 18205 PWs)   bands (ev):

   -74.1501 -38.3842 -38.3604 -38.2698 -14.0087 -12.9098  -5.5843  -4.4846
    -3.8073  -2.6828  -2.1759  -1.7021  -0.8593   2.1820   2.4532   2.9590
     3.8872   6.1063   6.3548   7.0935   7.8025   8.4511   9.0525   9.3056
    10.1292  11.3527  11.9962  12.1617  12.2596  13.0035  13.1076  13.7522
    14.2992  15.3173  16.7395  16.8335  17.1271  17.1423  17.9291  18.4100
    18.9796  20.1759  20.2383  20.9556  21.0063  21.0483  21.4017  21.7187
    22.1110  22.1436

          k = 0.2245 0.1296 0.0000 ( 18219 PWs)   bands (ev):

   -74.1506 -38.3738 -38.3624 -38.2674 -14.0713 -12.9326  -5.6228  -4.4129
    -3.7227  -2.6271  -2.2285  -1.6673  -0.7960   2.1747   2.4691   2.9068
     3.8282   6.0340   6.2756   7.0339   7.7719   8.4222   9.0084   9.3613
    10.0499  11.2893  12.0354  12.0939  12.1708  12.9404  13.1441  13.7359
    14.3707  15.3152  16.7749  17.0793  17.1201  17.2753  18.1232  18.3817
    19.2154  20.1683  20.2773  21.0609  21.0935  21.1390  21.4849  21.7098
    22.0971  22.1914

          k = 0.2143 0.1237 0.0000 ( 18223 PWs)   bands (ev):

   -74.1511 -38.3642 -38.3635 -38.2650 -14.1323 -12.9549  -5.6680  -4.3337
    -3.6381  -2.5705  -2.2807  -1.6336  -0.7330   2.1731   2.4875   2.8579
     3.7675   5.9622   6.1984   6.9693   7.7220   8.3820   8.9753   9.4306
     9.9804  11.2096  12.0334  12.0673  12.0818  12.8829  13.1727  13.7430
    14.4593  15.3232  16.7275  17.0136  17.4085  17.5128  18.0960  18.5757
    19.4077  20.0787  20.3572  21.1287  21.2336  21.2363  21.5724  21.7137
    22.1240  22.1735

          k = 0.2041 0.1178 0.0000 ( 18235 PWs)   bands (ev):

   -74.1516 -38.3661 -38.3533 -38.2626 -14.1917 -12.9767  -5.7177  -4.2491
    -3.5534  -2.5134  -2.3323  -1.6015  -0.6711   2.1776   2.5081   2.8130
     3.7052   5.8914   6.1236   6.9010   7.6509   8.3344   8.9577   9.5062
     9.9194  11.1207  11.9539  11.9779  12.1331  12.8311  13.1931  13.7723
    14.5601  15.3413  16.6589  16.9456  17.6882  17.7773  18.0031  18.8466
    19.4636  20.0934  20.4160  21.2214  21.2521  21.3756  21.6644  21.7932
    22.1253  22.1813

          k = 0.1939 0.1119 0.0000 ( 18247 PWs)   bands (ev):

   -74.1521 -38.3679 -38.3434 -38.2602 -14.2492 -12.9977  -5.7703  -4.1606
    -3.4690  -2.4559  -2.3831  -1.5716  -0.6111   2.1885   2.5307   2.7724
     3.6417   5.8218   6.0515   6.8293   7.5604   8.2827   8.9563   9.5799
     9.8658  11.0316  11.8346  11.9255  12.1865  12.7850  13.2058  13.8220
    14.6692  15.3687  16.5854  16.8757  17.8133  18.0500  18.0554  19.1276
    19.3506  20.2646  20.4540  21.2106  21.3180  21.5190  21.7608  21.9364
    22.0696  22.2615

          k = 0.1837 0.1060 0.0000 ( 18241 PWs)   bands (ev):

   -74.1526 -38.3697 -38.3336 -38.2579 -14.3047 -13.0181  -5.8244  -4.0696
    -3.3850  -2.4327  -2.3982  -1.5445  -0.5539   2.2057   2.5549   2.7367
     3.5774   5.7536   5.9822   6.7543   7.4552   8.2291   8.9695   9.6425
     9.8191  10.9528  11.7124  11.8753  12.2387  12.7442  13.2122  13.8899
    14.7835  15.4044  16.5116  16.8046  17.7167  18.3172  18.3277  19.1735
    19.4053  20.4724  20.5043  21.1654  21.4020  21.6633  21.8617  22.0178
    22.0912  22.3660

          k = 0.1735 0.1002 0.0000 ( 18229 PWs)   bands (ev):

   -74.1531 -38.3715 -38.3241 -38.2557 -14.3581 -13.0378  -5.8788  -3.9772
    -3.3014  -2.4810  -2.3406  -1.5206  -0.5001   2.2292   2.5804   2.7064
     3.5124   5.6870   5.9158   6.6755   7.3412   8.1751   8.9937   9.6834
     9.7796  10.8961  11.5895  11.8272  12.2864  12.7087  13.2143  13.9734
    14.9008  15.4470  16.4395  16.7326  17.5998  18.5324  18.6190  19.0281
    19.6661  20.4811  20.7632  21.1455  21.4565  21.8079  21.9669  21.9773
    22.2243  22.4980

          k = 0.1633 0.0943 0.0000 ( 18239 PWs)   bands (ev):

   -74.1535 -38.3731 -38.3149 -38.2535 -14.4091 -13.0566  -5.9328  -3.8843
    -3.2184  -2.5278  -2.2835  -1.5006  -0.4501   2.2590   2.6071   2.6816
     3.4473   5.6219   5.8526   6.5920   7.2244   8.1218   9.0246   9.6925
     9.7482  10.8722  11.4677  11.7818  12.3265  12.6783  13.2144  14.0702
    15.0192  15.4951  16.3697  16.6604  17.4822  18.5288  18.9063  19.0968
    19.8821  20.5124  21.0170  21.1622  21.4713  21.9499  21.9519  22.0766
    22.3285  22.6478

          k = 0.1531 0.0884 0.0000 ( 18245 PWs)   bands (ev):

   -74.1540 -38.3747 -38.3060 -38.2514 -14.4576 -13.0745  -5.9857  -3.7917
    -3.1361  -2.5727  -2.2270  -1.4849  -0.4044   2.2946   2.6344   2.6626
     3.3825   5.5585   5.7927   6.5030   7.1103   8.0700   9.0574   9.6648
     9.7268  10.8860  11.3484  11.7406  12.3560  12.6525  13.2146  14.1783
    15.1371  15.5473  16.3028  16.5885  17.3672  18.3456  19.1758  19.3463
    20.0160  20.6164  21.2076  21.2195  21.4862  21.9300  22.0943  22.1905
    22.4116  22.7330

          k = 0.1429 0.0825 0.0000 ( 18245 PWs)   bands (ev):

   -74.1544 -38.3763 -38.2975 -38.2494 -14.5036 -13.0915  -6.0370  -3.7001
    -3.0546  -2.6156  -2.1714  -1.4739  -0.3630   2.3357   2.6494   2.6622
     3.3183   5.4965   5.7362   6.4079   7.0034   8.0203   9.0877   9.6035
     9.7178  10.9338  11.2327  11.7056  12.3727  12.6312  13.2168  14.2957
    15.2535  15.6024  16.2390  16.5175  17.2562  18.1235  19.4001  19.6389
    20.0929  20.7895  21.2016  21.3248  21.6107  21.9354  22.2332  22.3087
    22.4801  22.7865

          k = 0.1327 0.0766 0.0000 ( 18237 PWs)   bands (ev):

   -74.1548 -38.3778 -38.2894 -38.2475 -14.5469 -13.1075  -6.0861  -3.6105
    -2.9741  -2.6564  -2.1173  -1.4680  -0.3261   2.3814   2.6420   2.6901
     3.2553   5.4358   5.6832   6.3074   6.9065   7.9730   9.1113   9.5171
     9.7237  11.0046  11.1216  11.6801  12.3754  12.6139  13.2220  14.4208
    15.3672  15.6592  16.1782  16.4480  17.1502  17.8937  19.5328  19.9445
    20.2054  20.9737  21.0782  21.4909  21.6894  22.0551  22.3657  22.4310
    22.5377  22.9004

          k = 0.1224 0.0707 0.0000 ( 18249 PWs)   bands (ev):

   -74.1552 -38.3791 -38.2818 -38.2458 -14.5875 -13.1225  -6.1326  -3.5233
    -2.8947  -2.6948  -2.0648  -1.4673  -0.2936   2.4311   2.6401   2.7177
     3.1940   5.3763   5.6337   6.2030   6.8207   7.9284   9.1256   9.4149
     9.7457  11.0159  11.0845  11.6695  12.3642  12.6004  13.2302  14.5518
    15.4772  15.7167  16.1205  16.3804  17.0498  17.6644  19.5621  20.2532
    20.3915  20.9174  21.1414  21.6739  21.7168  22.2763  22.4870  22.5574
    22.5888  23.0612

          k = 0.1122 0.0648 0.0000 ( 18277 PWs)   bands (ev):

   -74.1555 -38.3804 -38.2746 -38.2441 -14.6251 -13.1364  -6.1764  -3.4395
    -2.8165  -2.7307  -2.0143  -1.4721  -0.2653   2.4838   2.6433   2.7447
     3.1349   5.3177   5.5879   6.0975   6.7459   7.8869   9.1300   9.3046
     9.7833  10.9162  11.1581  11.6823  12.3401  12.5901  13.2407  14.6874
    15.5827  15.7740  16.0657  16.3155  16.9555  17.4394  19.5331  20.5289
    20.6098  20.7741  21.3069  21.6360  21.9788  22.5167  22.5899  22.6409
    22.6876  23.2604

          k = 0.1020 0.0589 0.0000 ( 18283 PWs)   bands (ev):

   -74.1558 -38.3816 -38.2680 -38.2425 -14.6598 -13.1492  -6.2171  -3.3596
    -2.7640  -2.7399  -1.9663  -1.4821  -0.2409   2.5384   2.6510   2.7707
     3.0785   5.2597   5.5458   5.9939   6.6809   7.8485   9.1260   9.1919
     9.8340  10.8232  11.2117  11.7270  12.3052  12.5828  13.2522  14.8258
    15.6827  15.8303  16.0134  16.2538  16.8677  17.2213  19.4822  20.4853
    20.8168  20.9430  21.4937  21.5973  22.2431  22.6649  22.7119  22.7518
    22.8215  23.4930

          k = 0.0918 0.0530 0.0000 ( 18271 PWs)   bands (ev):

   -74.1561 -38.3827 -38.2618 -38.2411 -14.6914 -13.1609  -6.2545  -3.2844
    -2.7945  -2.6650  -1.9212  -1.4973  -0.2202   2.5939   2.6624   2.7955
     3.0253   5.2022   5.5075   5.8955   6.6248   7.8134   9.0808   9.1158
     9.8945  10.7374  11.2399  11.8048  12.2616  12.5779  13.2635  14.9653
    15.7765  15.8851  15.9631  16.1958  16.7865  17.0128  19.4256  20.2984
    20.9914  21.2485  21.5687  21.7124  22.4581  22.7048  22.8476  22.9589
    22.9763  23.5792

          k = 0.0816 0.0471 0.0000 ( 18269 PWs)   bands (ev):

   -74.1564 -38.3837 -38.2563 -38.2398 -14.7199 -13.1715  -6.2884  -3.2147
    -2.8221  -2.5922  -1.8794  -1.5173  -0.2028   2.6488   2.6766   2.8187
     2.9760   5.1454   5.4730   5.8049   6.5763   7.7818   8.9745   9.1020
     9.9611  10.6593  11.2482  11.9071  12.2117  12.5751  13.2737  15.1039
    15.8633  15.9143  15.9378  16.1422  16.7121  16.8165  19.3702  20.1041
    21.1324  21.4658  21.6452  21.9509  22.5932  22.7108  23.0827  23.0993
    23.1914  23.6573

          k = 0.0714 0.0412 0.0000 ( 18281 PWs)   bands (ev):

   -74.1567 -38.3846 -38.2514 -38.2387 -14.7452 -13.1809  -6.3186  -3.1511
    -2.8467  -2.5219  -1.8413  -1.5414  -0.1884   2.6927   2.7021   2.8400
     2.9309   5.0896   5.4424   5.7240   6.5347   7.7537   8.8754   9.0865
    10.0308  10.5893  11.2449  12.0223  12.1580  12.5738  13.2822  15.2390
    15.8661  15.9422  15.9878  16.0934  16.6358  16.6444  19.3194  19.9145
    21.2481  21.4669  21.9466  22.1736  22.6925  22.7144  23.2424  23.3710
    23.4004  23.7665

          k = 0.0612 0.0353 0.0000 ( 18277 PWs)   bands (ev):

   -74.1569 -38.3854 -38.2470 -38.2377 -14.7672 -13.1890  -6.3451  -3.0944
    -2.8681  -2.4548  -1.8072  -1.5690  -0.1767   2.7096   2.7523   2.8591
     2.8906   5.0357   5.4158   5.6542   6.4994   7.7293   8.7855   9.0708
    10.1005  10.5279  11.2361  12.1028  12.1410  12.5737  13.2887  15.3671
    15.8181  16.0124  16.0349  16.0499  16.4747  16.5833  19.2745  19.7353
    21.3457  21.4448  22.2777  22.3323  22.6609  22.8958  23.3874  23.6063
    23.6698  23.8966

          k = 0.0510 0.0295 0.0000 ( 18281 PWs)   bands (ev):

   -74.1570 -38.3860 -38.2433 -38.2368 -14.7859 -13.1960  -6.3676  -3.0451
    -2.8865  -2.3920  -1.7777  -1.5989  -0.1673   2.7262   2.7981   2.8556
     2.8757   4.9854   5.3932   5.5959   6.4699   7.7085   8.7066   9.0561
    10.1672  10.4753  11.2256  12.0488  12.2560  12.5744  13.2935  15.4816
    15.7728  16.0122  16.0733  16.0787  16.3368  16.5288  19.2363  19.5712
    21.4236  21.4288  22.4180  22.6131  22.6247  23.1512  23.5332  23.8117
    23.9558  24.0393

          k = 0.0408 0.0236 0.0000 ( 18281 PWs)   bands (ev):

   -74.1572 -38.3866 -38.2403 -38.2361 -14.8013 -13.2017  -6.3862  -3.0039
    -2.9015  -2.3346  -1.7529  -1.6296  -0.1600   2.7415   2.8263   2.8380
     2.8897   4.9403   5.3746   5.5492   6.4461   7.6914   8.6400   9.0432
    10.2280  10.4318  11.2154  11.9986  12.3612  12.5755  13.2966  15.5648
    15.7454  15.9808  16.1189  16.1242  16.2248  16.4805  19.2052  19.4269
    21.4055  21.4983  22.4628  22.5897  22.9483  23.4472  23.6779  24.0180
    24.1878  24.2117

          k = 0.0306 0.0177 0.0000 ( 18285 PWs)   bands (ev):

   -74.1573 -38.3870 -38.2379 -38.2355 -14.8133 -13.2061  -6.4007  -2.9713
    -2.9133  -2.2846  -1.7334  -1.6590  -0.1546   2.7545   2.8031   2.8707
     2.9008   4.9025   5.3601   5.5136   6.4276   7.6781   8.5869   9.0326
    10.2798  10.3978  11.2066  11.9550  12.4511  12.5767  13.2986  15.5802
    15.7730  15.9559  16.1382  16.1549  16.1645  16.4386  19.1810  19.3073
    21.3912  21.5537  22.4889  22.5595  23.2800  23.7574  23.8178  24.2250
    24.3353  24.4310

          k = 0.0204 0.0118 0.0000 ( 18293 PWs)   bands (ev):

   -74.1574 -38.3873 -38.2362 -38.2351 -14.8219 -13.2093  -6.4111  -2.9476
    -2.9218  -2.2449  -1.7192  -1.6841  -0.1508   2.7644   2.7863   2.8951
     2.9088   4.8739   5.3497   5.4886   6.4145   7.6685   8.5483   9.0247
    10.3197  10.3733  11.1999  11.9211  12.5201  12.5778  13.2996  15.5523
    15.8352  15.9379  16.0726  16.1857  16.1936  16.4040  19.1638  19.2172
    21.3809  21.5942  22.5051  22.5365  23.6028  23.9451  24.0656  24.4260
    24.4718  24.6165

          k = 0.0102 0.0059 0.0000 ( 18289 PWs)   bands (ev):

   -74.1574 -38.3875 -38.2352 -38.2349 -14.8270 -13.2112  -6.4174  -2.9333
    -2.9268  -2.2188  -1.7106  -1.7015  -0.1486   2.7706   2.7761   2.9102
     2.9137   4.8561   5.3435   5.4738   6.4067   7.6628   8.5248   9.0199
    10.3450  10.3585  11.1958  11.8995  12.5638  12.5785  13.3001  15.5255
    15.8930  15.9271  16.0226  16.2083  16.2112  16.3791  19.1536  19.1611
    21.3747  21.6189  22.5143  22.5221  23.9023  24.0432  24.3568  24.5346
    24.5781  24.7143

          k = 0.0000 0.0000 0.0000 ( 18289 PWs)   bands (ev):

   -74.1575 -38.3876 -38.2348 -38.2348 -14.8288 -13.2119  -6.4195  -2.9285
    -2.9285  -2.2097  -1.7077  -1.7077  -0.1479   2.7727   2.7727   2.9153
     2.9153   4.8500   5.3414   5.4689   6.4041   7.6609   8.5170   9.0183
    10.3536  10.3536  11.1944  11.8921  12.5788  12.5788  13.3003  15.5153
    15.9234  15.9234  15.9962  16.2171  16.2171  16.3696  19.1420  19.1501
    21.3727  21.6272  22.5173  22.5173  24.0826  24.0826  24.4201  24.6041
    24.6209  24.6209

     Writing all to output data dir ./WS2.save/
 
     init_run     :      0.08s CPU      0.35s WALL (       1 calls)
     electrons    :     53.36s CPU     53.85s WALL (       1 calls)

     Called by init_run:
     wfcinit      :      0.00s CPU      0.00s WALL (       1 calls)
     wfcinit:wfcr :      0.96s CPU      0.99s WALL (      64 calls)
     potinit      :      0.02s CPU      0.08s WALL (       1 calls)
     hinit0       :      0.03s CPU      0.22s WALL (       1 calls)

     Called by electrons:
     c_bands      :     53.35s CPU     53.84s WALL (       1 calls)
     v_of_rho     :      0.00s CPU      0.01s WALL (       1 calls)
     v_h          :      0.00s CPU      0.00s WALL (       1 calls)
     v_xc         :      0.00s CPU      0.01s WALL (       1 calls)

     Called by c_bands:
     init_us_2    :      0.01s CPU      0.01s WALL (      64 calls)
     init_us_2:cp :      0.01s CPU      0.01s WALL (      64 calls)
     cegterg      :     47.49s CPU     47.94s WALL (     236 calls)

     Called by sum_band:

     Called by *egterg:
     cdiaghg      :     17.43s CPU     17.56s WALL (    4330 calls)
     cegterg:over :      4.25s CPU      4.31s WALL (    4266 calls)
     cegterg:upda :      2.69s CPU      2.71s WALL (    4266 calls)
     cegterg:last :      3.12s CPU      3.13s WALL (    2236 calls)
     cdiaghg:chol :      0.75s CPU      0.77s WALL (    4330 calls)
     cdiaghg:inve :      0.12s CPU      0.12s WALL (    4330 calls)
     cdiaghg:para :      1.21s CPU      1.23s WALL (    8660 calls)
     h_psi        :     20.26s CPU     20.52s WALL (    4566 calls)
     g_psi        :      0.08s CPU      0.08s WALL (    4266 calls)

     Called by h_psi:
     h_psi:calbec :      0.88s CPU      0.90s WALL (    4566 calls)
     vloc_psi     :     18.89s CPU     19.13s WALL (    4566 calls)
     add_vuspsi   :      0.41s CPU      0.42s WALL (    4566 calls)

     General routines
     calbec       :      0.87s CPU      0.89s WALL (    4566 calls)
     fft          :      0.01s CPU      0.21s WALL (      11 calls)
     fftw         :     17.78s CPU     18.00s WALL (  233434 calls)
 
     Parallel routines
 
     PWSCF        :     56.98s CPU   1m 2.38s WALL

 
   This run was terminated on:  10:59:49   3May2023            

=------------------------------------------------------------------------------=
   JOB DONE.
=------------------------------------------------------------------------------=
