
     Program PWSCF v.7.0 starts on  3May2023 at 10:29:48 

     This program is part of the open-source Quantum ESPRESSO suite
     for quantum simulation of materials; please cite
         "P. Giannozzi et al., J. Phys.:Condens. Matter 21 395502 (2009);
         "P. Giannozzi et al., J. Phys.:Condens. Matter 29 465901 (2017);
         "P. Giannozzi et al., J. Chem. Phys. 152 154105 (2020);
          URL http://www.quantum-espresso.org", 
     in publications or presentations arising from this work. More details at
     http://www.quantum-espresso.org/quote

     Parallel version (MPI), running on   144 processors

     MPI processes distributed on     2 nodes
     K-points division:     npool     =       2
     R & G space division:  proc/nbgrp/npool/nimage =      72
     206849 MiB available memory on the printing compute node when the environment starts
 
     Waiting for input...
     Reading input from standard input

     Current dimensions of program PWSCF are:
     Max number of different atomic species (ntypx) = 10
     Max number of k-points (npk) =  40000
     Max angular momentum in pseudopotentials (lmaxx) =  4

     Atomic positions and unit cell read from directory:
     ./MoSe2.save/
     Atomic positions from file used, from input discarded
 
     Message from routine setup:
     using ibrav=0 with symmetry is DISCOURAGED, use correct ibrav instead

     Subspace diagonalization in iterative solution of the eigenvalue problem:
     one sub-group per band group will be used
     scalapack distributed-memory algorithm (size of sub-group:  8*  8 procs)

 
     Parallelization info
     --------------------
     sticks:   dense  smooth     PW     G-vecs:    dense   smooth      PW
     Min          14      14      4                 1822     1822     274
     Max          15      15      5                 1865     1865     297
     Sum        1069    1069    313               133157   133157   20391
 
     Using Slab Decomposition
 


     bravais-lattice index     =            0
     lattice parameter (alat)  =       6.2734  a.u.
     unit-cell volume          =     987.8888 (a.u.)^3
     number of atoms/cell      =            3
     number of atomic types    =            2
     number of electrons       =        46.00
     number of Kohn-Sham states=           50
     kinetic-energy cutoff     =     100.0000  Ry
     charge density cutoff     =     400.0000  Ry
     Exchange-correlation= PBE
                           (   1   4   3   4   0   0   0)

     celldm(1)=   6.273416  celldm(2)=   0.000000  celldm(3)=   0.000000
     celldm(4)=   0.000000  celldm(5)=   0.000000  celldm(6)=   0.000000

     crystal axes: (cart. coord. in units of alat)
               a(1) = (   1.000000   0.000000   0.000000 )  
               a(2) = (  -0.500000   0.866025   0.000000 )  
               a(3) = (   0.000000   0.000000   4.620247 )  

     reciprocal axes: (cart. coord. in units 2 pi/alat)
               b(1) = (  1.000000  0.577350  0.000000 )  
               b(2) = (  0.000000  1.154701  0.000000 )  
               b(3) = (  0.000000  0.000000  0.216439 )  


     PseudoPot. # 1 for Se read from file:
     /u/danielhg/pseudo/Se-nc-sr-pbe-dojo.UPF
     MD5 check sum: 3cc46b3642295b3f4fdae63b742ce36d
     Pseudo is Norm-conserving + core correction, Zval = 16.0
     Generated using ONCVPSP code by D. R. Hamann
     Using radial grid of 1214 points,  6 beta functions with: 
                l(1) =   0
                l(2) =   0
                l(3) =   1
                l(4) =   1
                l(5) =   2
                l(6) =   2

     PseudoPot. # 2 for Mo read from file:
     /u/danielhg/pseudo/Mo-nc-sr-pbe-dojo.UPF
     MD5 check sum: 7ca7a9feba7bf08d88d14bc7fbf60c1e
     Pseudo is Norm-conserving + core correction, Zval = 14.0
     Generated using ONCVPSP code by D. R. Hamann
     Using radial grid of 1640 points,  6 beta functions with: 
                l(1) =   0
                l(2) =   0
                l(3) =   1
                l(4) =   1
                l(5) =   2
                l(6) =   2

     atomic species   valence    mass     pseudopotential
        Se            16.00    78.97000     Se( 1.00)
        Mo            14.00    95.95000     Mo( 1.00)

      6 Sym. Ops. (no inversion) found


                                    s                        frac. trans.

      isym =  1     identity                                     

 cryst.   s( 1) = (     1          0          0      )
                  (     0          1          0      )
                  (     0          0          1      )

 cart.    s( 1) = (  1.0000000 -0.0000000  0.0000000 )
                  (  0.0000000  1.0000000  0.0000000 )
                  (  0.0000000  0.0000000  1.0000000 )


      isym =  2     120 deg rotation - cryst. axis [0,0,1]       

 cryst.   s( 2) = (     0          1          0      )
                  (    -1         -1          0      )
                  (     0          0          1      )

 cart.    s( 2) = ( -0.5000000 -0.8660254  0.0000000 )
                  (  0.8660254 -0.5000000  0.0000000 )
                  (  0.0000000  0.0000000  1.0000000 )


      isym =  3     120 deg rotation - cryst. axis [0,0,-1]      

 cryst.   s( 3) = (    -1         -1          0      )
                  (     1          0          0      )
                  (     0          0          1      )

 cart.    s( 3) = ( -0.5000000  0.8660254  0.0000000 )
                  ( -0.8660254 -0.5000000  0.0000000 )
                  (  0.0000000  0.0000000  1.0000000 )


      isym =  4     inv. 180 deg rotation - cart. axis [1,0,0]   

 cryst.   s( 4) = (    -1          0          0      )
                  (     1          1          0      )
                  (     0          0          1      )

 cart.    s( 4) = ( -1.0000000 -0.0000000  0.0000000 )
                  (  0.0000000  1.0000000  0.0000000 )
                  (  0.0000000  0.0000000  1.0000000 )


      isym =  5     inv. 180 deg rotation - cryst. axis [0,1,0]  

 cryst.   s( 5) = (     1          1          0      )
                  (     0         -1          0      )
                  (     0          0          1      )

 cart.    s( 5) = (  0.5000000  0.8660254  0.0000000 )
                  (  0.8660254 -0.5000000  0.0000000 )
                  (  0.0000000  0.0000000  1.0000000 )


      isym =  6     inv. 180 deg rotation - cryst. axis [1,1,0]  

 cryst.   s( 6) = (     0         -1          0      )
                  (    -1          0          0      )
                  (     0          0          1      )

 cart.    s( 6) = (  0.5000000 -0.8660254  0.0000000 )
                  ( -0.8660254 -0.5000000  0.0000000 )
                  (  0.0000000  0.0000000  1.0000000 )


   Cartesian axes

     site n.     atom                  positions (alat units)
         1           Mo  tau(   1) = (   0.0000000   0.0000000   2.7619649  )
         2           Se  tau(   2) = (   0.5000000   0.2886751   3.2647226  )
         3           Se  tau(   3) = (   0.5000000   0.2886751   2.2592071  )

   Crystallographic axes

     site n.     atom                  positions (cryst. coord.)
         1           Mo  tau(   1) = (  0.0000000  0.0000000  0.5977959  )
         2           Se  tau(   2) = (  0.6666667  0.3333333  0.7066122  )
         3           Se  tau(   3) = (  0.6666667  0.3333333  0.4889797  )

     number of k points=   128
                       cart. coord. in units 2pi/alat
        k(    1) = (   0.0000000   0.0000000   0.0000000), wk =   0.0156250
        k(    2) = (   0.0067959   0.0117709   0.0000000), wk =   0.0156250
        k(    3) = (   0.0135918   0.0235418   0.0000000), wk =   0.0156250
        k(    4) = (   0.0203878   0.0353126   0.0000000), wk =   0.0156250
        k(    5) = (   0.0271837   0.0470835   0.0000000), wk =   0.0156250
        k(    6) = (   0.0339796   0.0588544   0.0000000), wk =   0.0156250
        k(    7) = (   0.0407755   0.0706253   0.0000000), wk =   0.0156250
        k(    8) = (   0.0475714   0.0823961   0.0000000), wk =   0.0156250
        k(    9) = (   0.0543673   0.0941670   0.0000000), wk =   0.0156250
        k(   10) = (   0.0611633   0.1059379   0.0000000), wk =   0.0156250
        k(   11) = (   0.0679592   0.1177088   0.0000000), wk =   0.0156250
        k(   12) = (   0.0747551   0.1294796   0.0000000), wk =   0.0156250
        k(   13) = (   0.0815510   0.1412505   0.0000000), wk =   0.0156250
        k(   14) = (   0.0883469   0.1530214   0.0000000), wk =   0.0156250
        k(   15) = (   0.0951429   0.1647923   0.0000000), wk =   0.0156250
        k(   16) = (   0.1019388   0.1765631   0.0000000), wk =   0.0156250
        k(   17) = (   0.1087347   0.1883340   0.0000000), wk =   0.0156250
        k(   18) = (   0.1155306   0.2001049   0.0000000), wk =   0.0156250
        k(   19) = (   0.1223265   0.2118758   0.0000000), wk =   0.0156250
        k(   20) = (   0.1291224   0.2236466   0.0000000), wk =   0.0156250
        k(   21) = (   0.1359184   0.2354175   0.0000000), wk =   0.0156250
        k(   22) = (   0.1427143   0.2471884   0.0000000), wk =   0.0156250
        k(   23) = (   0.1495102   0.2589593   0.0000000), wk =   0.0156250
        k(   24) = (   0.1563061   0.2707301   0.0000000), wk =   0.0156250
        k(   25) = (   0.1631020   0.2825010   0.0000000), wk =   0.0156250
        k(   26) = (   0.1698980   0.2942719   0.0000000), wk =   0.0156250
        k(   27) = (   0.1766939   0.3060428   0.0000000), wk =   0.0156250
        k(   28) = (   0.1834898   0.3178136   0.0000000), wk =   0.0156250
        k(   29) = (   0.1902857   0.3295845   0.0000000), wk =   0.0156250
        k(   30) = (   0.1970816   0.3413554   0.0000000), wk =   0.0156250
        k(   31) = (   0.2038776   0.3531263   0.0000000), wk =   0.0156250
        k(   32) = (   0.2106735   0.3648972   0.0000000), wk =   0.0156250
        k(   33) = (   0.2174694   0.3766680   0.0000000), wk =   0.0156250
        k(   34) = (   0.2242653   0.3884389   0.0000000), wk =   0.0156250
        k(   35) = (   0.2310612   0.4002098   0.0000000), wk =   0.0156250
        k(   36) = (   0.2378571   0.4119807   0.0000000), wk =   0.0156250
        k(   37) = (   0.2446531   0.4237515   0.0000000), wk =   0.0156250
        k(   38) = (   0.2514490   0.4355224   0.0000000), wk =   0.0156250
        k(   39) = (   0.2582449   0.4472933   0.0000000), wk =   0.0156250
        k(   40) = (   0.2650408   0.4590642   0.0000000), wk =   0.0156250
        k(   41) = (   0.2718367   0.4708350   0.0000000), wk =   0.0156250
        k(   42) = (   0.2786327   0.4826059   0.0000000), wk =   0.0156250
        k(   43) = (   0.2854286   0.4943768   0.0000000), wk =   0.0156250
        k(   44) = (   0.2922245   0.5061477   0.0000000), wk =   0.0156250
        k(   45) = (   0.2990204   0.5179185   0.0000000), wk =   0.0156250
        k(   46) = (   0.3058163   0.5296894   0.0000000), wk =   0.0156250
        k(   47) = (   0.3126122   0.5414603   0.0000000), wk =   0.0156250
        k(   48) = (   0.3194082   0.5532312   0.0000000), wk =   0.0156250
        k(   49) = (   0.3262041   0.5650020   0.0000000), wk =   0.0156250
        k(   50) = (   0.3330000   0.5767729   0.0000000), wk =   0.0156250
        k(   51) = (   0.3387586   0.5668385   0.0000000), wk =   0.0156250
        k(   52) = (   0.3445172   0.5569041   0.0000000), wk =   0.0156250
        k(   53) = (   0.3502759   0.5469697   0.0000000), wk =   0.0156250
        k(   54) = (   0.3560345   0.5370353   0.0000000), wk =   0.0156250
        k(   55) = (   0.3617931   0.5271009   0.0000000), wk =   0.0156250
        k(   56) = (   0.3675517   0.5171665   0.0000000), wk =   0.0156250
        k(   57) = (   0.3733103   0.5072321   0.0000000), wk =   0.0156250
        k(   58) = (   0.3790690   0.4972977   0.0000000), wk =   0.0156250
        k(   59) = (   0.3848276   0.4873633   0.0000000), wk =   0.0156250
        k(   60) = (   0.3905862   0.4774289   0.0000000), wk =   0.0156250
        k(   61) = (   0.3963448   0.4674944   0.0000000), wk =   0.0156250
        k(   62) = (   0.4021034   0.4575600   0.0000000), wk =   0.0156250
        k(   63) = (   0.4078621   0.4476256   0.0000000), wk =   0.0156250
        k(   64) = (   0.4136207   0.4376912   0.0000000), wk =   0.0156250
        k(   65) = (   0.4193793   0.4277568   0.0000000), wk =   0.0156250
        k(   66) = (   0.4251379   0.4178224   0.0000000), wk =   0.0156250
        k(   67) = (   0.4308966   0.4078880   0.0000000), wk =   0.0156250
        k(   68) = (   0.4366552   0.3979536   0.0000000), wk =   0.0156250
        k(   69) = (   0.4424138   0.3880192   0.0000000), wk =   0.0156250
        k(   70) = (   0.4481724   0.3780848   0.0000000), wk =   0.0156250
        k(   71) = (   0.4539310   0.3681504   0.0000000), wk =   0.0156250
        k(   72) = (   0.4596897   0.3582160   0.0000000), wk =   0.0156250
        k(   73) = (   0.4654483   0.3482816   0.0000000), wk =   0.0156250
        k(   74) = (   0.4712069   0.3383472   0.0000000), wk =   0.0156250
        k(   75) = (   0.4769655   0.3284128   0.0000000), wk =   0.0156250
        k(   76) = (   0.4827241   0.3184784   0.0000000), wk =   0.0156250
        k(   77) = (   0.4884828   0.3085439   0.0000000), wk =   0.0156250
        k(   78) = (   0.4942414   0.2986095   0.0000000), wk =   0.0156250
        k(   79) = (   0.5000000   0.2886751   0.0000000), wk =   0.0156250
        k(   80) = (   0.4897959   0.2827838   0.0000000), wk =   0.0156250
        k(   81) = (   0.4795918   0.2768925   0.0000000), wk =   0.0156250
        k(   82) = (   0.4693878   0.2710011   0.0000000), wk =   0.0156250
        k(   83) = (   0.4591837   0.2651098   0.0000000), wk =   0.0156250
        k(   84) = (   0.4489796   0.2592185   0.0000000), wk =   0.0156250
        k(   85) = (   0.4387755   0.2533272   0.0000000), wk =   0.0156250
        k(   86) = (   0.4285714   0.2474358   0.0000000), wk =   0.0156250
        k(   87) = (   0.4183673   0.2415445   0.0000000), wk =   0.0156250
        k(   88) = (   0.4081633   0.2356532   0.0000000), wk =   0.0156250
        k(   89) = (   0.3979592   0.2297618   0.0000000), wk =   0.0156250
        k(   90) = (   0.3877551   0.2238705   0.0000000), wk =   0.0156250
        k(   91) = (   0.3775510   0.2179792   0.0000000), wk =   0.0156250
        k(   92) = (   0.3673469   0.2120879   0.0000000), wk =   0.0156250
        k(   93) = (   0.3571429   0.2061965   0.0000000), wk =   0.0156250
        k(   94) = (   0.3469388   0.2003052   0.0000000), wk =   0.0156250
        k(   95) = (   0.3367347   0.1944139   0.0000000), wk =   0.0156250
        k(   96) = (   0.3265306   0.1885225   0.0000000), wk =   0.0156250
        k(   97) = (   0.3163265   0.1826312   0.0000000), wk =   0.0156250
        k(   98) = (   0.3061224   0.1767399   0.0000000), wk =   0.0156250
        k(   99) = (   0.2959184   0.1708485   0.0000000), wk =   0.0156250
        k(  100) = (   0.2857143   0.1649572   0.0000000), wk =   0.0156250
        k(  101) = (   0.2755102   0.1590659   0.0000000), wk =   0.0156250
        k(  102) = (   0.2653061   0.1531746   0.0000000), wk =   0.0156250
        k(  103) = (   0.2551020   0.1472832   0.0000000), wk =   0.0156250
        k(  104) = (   0.2448980   0.1413919   0.0000000), wk =   0.0156250
        k(  105) = (   0.2346939   0.1355006   0.0000000), wk =   0.0156250
        k(  106) = (   0.2244898   0.1296092   0.0000000), wk =   0.0156250
        k(  107) = (   0.2142857   0.1237179   0.0000000), wk =   0.0156250
        k(  108) = (   0.2040816   0.1178266   0.0000000), wk =   0.0156250
        k(  109) = (   0.1938776   0.1119353   0.0000000), wk =   0.0156250
        k(  110) = (   0.1836735   0.1060439   0.0000000), wk =   0.0156250
        k(  111) = (   0.1734694   0.1001526   0.0000000), wk =   0.0156250
        k(  112) = (   0.1632653   0.0942613   0.0000000), wk =   0.0156250
        k(  113) = (   0.1530612   0.0883699   0.0000000), wk =   0.0156250
        k(  114) = (   0.1428571   0.0824786   0.0000000), wk =   0.0156250
        k(  115) = (   0.1326531   0.0765873   0.0000000), wk =   0.0156250
        k(  116) = (   0.1224490   0.0706960   0.0000000), wk =   0.0156250
        k(  117) = (   0.1122449   0.0648046   0.0000000), wk =   0.0156250
        k(  118) = (   0.1020408   0.0589133   0.0000000), wk =   0.0156250
        k(  119) = (   0.0918367   0.0530220   0.0000000), wk =   0.0156250
        k(  120) = (   0.0816327   0.0471306   0.0000000), wk =   0.0156250
        k(  121) = (   0.0714286   0.0412393   0.0000000), wk =   0.0156250
        k(  122) = (   0.0612245   0.0353480   0.0000000), wk =   0.0156250
        k(  123) = (   0.0510204   0.0294566   0.0000000), wk =   0.0156250
        k(  124) = (   0.0408163   0.0235653   0.0000000), wk =   0.0156250
        k(  125) = (   0.0306122   0.0176740   0.0000000), wk =   0.0156250
        k(  126) = (   0.0204082   0.0117827   0.0000000), wk =   0.0156250
        k(  127) = (   0.0102041   0.0058913   0.0000000), wk =   0.0156250
        k(  128) = (   0.0000000   0.0000000   0.0000000), wk =   0.0156250

                       cryst. coord.
        k(    1) = (   0.0000000   0.0000000   0.0000000), wk =   0.0156250
        k(    2) = (   0.0067959   0.0067959   0.0000000), wk =   0.0156250
        k(    3) = (   0.0135918   0.0135918   0.0000000), wk =   0.0156250
        k(    4) = (   0.0203878   0.0203878   0.0000000), wk =   0.0156250
        k(    5) = (   0.0271837   0.0271837   0.0000000), wk =   0.0156250
        k(    6) = (   0.0339796   0.0339796   0.0000000), wk =   0.0156250
        k(    7) = (   0.0407755   0.0407755   0.0000000), wk =   0.0156250
        k(    8) = (   0.0475714   0.0475714   0.0000000), wk =   0.0156250
        k(    9) = (   0.0543673   0.0543673   0.0000000), wk =   0.0156250
        k(   10) = (   0.0611633   0.0611633   0.0000000), wk =   0.0156250
        k(   11) = (   0.0679592   0.0679592   0.0000000), wk =   0.0156250
        k(   12) = (   0.0747551   0.0747551   0.0000000), wk =   0.0156250
        k(   13) = (   0.0815510   0.0815510   0.0000000), wk =   0.0156250
        k(   14) = (   0.0883469   0.0883469   0.0000000), wk =   0.0156250
        k(   15) = (   0.0951429   0.0951429   0.0000000), wk =   0.0156250
        k(   16) = (   0.1019388   0.1019388   0.0000000), wk =   0.0156250
        k(   17) = (   0.1087347   0.1087347   0.0000000), wk =   0.0156250
        k(   18) = (   0.1155306   0.1155306   0.0000000), wk =   0.0156250
        k(   19) = (   0.1223265   0.1223265   0.0000000), wk =   0.0156250
        k(   20) = (   0.1291224   0.1291224   0.0000000), wk =   0.0156250
        k(   21) = (   0.1359184   0.1359184   0.0000000), wk =   0.0156250
        k(   22) = (   0.1427143   0.1427143   0.0000000), wk =   0.0156250
        k(   23) = (   0.1495102   0.1495102   0.0000000), wk =   0.0156250
        k(   24) = (   0.1563061   0.1563061   0.0000000), wk =   0.0156250
        k(   25) = (   0.1631020   0.1631020   0.0000000), wk =   0.0156250
        k(   26) = (   0.1698980   0.1698980   0.0000000), wk =   0.0156250
        k(   27) = (   0.1766939   0.1766939   0.0000000), wk =   0.0156250
        k(   28) = (   0.1834898   0.1834898   0.0000000), wk =   0.0156250
        k(   29) = (   0.1902857   0.1902857   0.0000000), wk =   0.0156250
        k(   30) = (   0.1970816   0.1970816   0.0000000), wk =   0.0156250
        k(   31) = (   0.2038776   0.2038776   0.0000000), wk =   0.0156250
        k(   32) = (   0.2106735   0.2106735   0.0000000), wk =   0.0156250
        k(   33) = (   0.2174694   0.2174694   0.0000000), wk =   0.0156250
        k(   34) = (   0.2242653   0.2242653   0.0000000), wk =   0.0156250
        k(   35) = (   0.2310612   0.2310612   0.0000000), wk =   0.0156250
        k(   36) = (   0.2378571   0.2378571   0.0000000), wk =   0.0156250
        k(   37) = (   0.2446531   0.2446531   0.0000000), wk =   0.0156250
        k(   38) = (   0.2514490   0.2514490   0.0000000), wk =   0.0156250
        k(   39) = (   0.2582449   0.2582449   0.0000000), wk =   0.0156250
        k(   40) = (   0.2650408   0.2650408   0.0000000), wk =   0.0156250
        k(   41) = (   0.2718367   0.2718367   0.0000000), wk =   0.0156250
        k(   42) = (   0.2786327   0.2786327   0.0000000), wk =   0.0156250
        k(   43) = (   0.2854286   0.2854286   0.0000000), wk =   0.0156250
        k(   44) = (   0.2922245   0.2922245   0.0000000), wk =   0.0156250
        k(   45) = (   0.2990204   0.2990204   0.0000000), wk =   0.0156250
        k(   46) = (   0.3058163   0.3058163   0.0000000), wk =   0.0156250
        k(   47) = (   0.3126122   0.3126122   0.0000000), wk =   0.0156250
        k(   48) = (   0.3194082   0.3194082   0.0000000), wk =   0.0156250
        k(   49) = (   0.3262041   0.3262041   0.0000000), wk =   0.0156250
        k(   50) = (   0.3330000   0.3330000   0.0000000), wk =   0.0156250
        k(   51) = (   0.3387586   0.3215172   0.0000000), wk =   0.0156250
        k(   52) = (   0.3445172   0.3100345   0.0000000), wk =   0.0156250
        k(   53) = (   0.3502759   0.2985517   0.0000000), wk =   0.0156250
        k(   54) = (   0.3560345   0.2870690   0.0000000), wk =   0.0156250
        k(   55) = (   0.3617931   0.2755862   0.0000000), wk =   0.0156250
        k(   56) = (   0.3675517   0.2641034   0.0000000), wk =   0.0156250
        k(   57) = (   0.3733103   0.2526207   0.0000000), wk =   0.0156250
        k(   58) = (   0.3790690   0.2411379   0.0000000), wk =   0.0156250
        k(   59) = (   0.3848276   0.2296552   0.0000000), wk =   0.0156250
        k(   60) = (   0.3905862   0.2181724   0.0000000), wk =   0.0156250
        k(   61) = (   0.3963448   0.2066897   0.0000000), wk =   0.0156250
        k(   62) = (   0.4021034   0.1952069   0.0000000), wk =   0.0156250
        k(   63) = (   0.4078621   0.1837241   0.0000000), wk =   0.0156250
        k(   64) = (   0.4136207   0.1722414   0.0000000), wk =   0.0156250
        k(   65) = (   0.4193793   0.1607586   0.0000000), wk =   0.0156250
        k(   66) = (   0.4251379   0.1492759   0.0000000), wk =   0.0156250
        k(   67) = (   0.4308966   0.1377931   0.0000000), wk =   0.0156250
        k(   68) = (   0.4366552   0.1263103   0.0000000), wk =   0.0156250
        k(   69) = (   0.4424138   0.1148276   0.0000000), wk =   0.0156250
        k(   70) = (   0.4481724   0.1033448   0.0000000), wk =   0.0156250
        k(   71) = (   0.4539310   0.0918621   0.0000000), wk =   0.0156250
        k(   72) = (   0.4596897   0.0803793   0.0000000), wk =   0.0156250
        k(   73) = (   0.4654483   0.0688966   0.0000000), wk =   0.0156250
        k(   74) = (   0.4712069   0.0574138   0.0000000), wk =   0.0156250
        k(   75) = (   0.4769655   0.0459310   0.0000000), wk =   0.0156250
        k(   76) = (   0.4827241   0.0344483   0.0000000), wk =   0.0156250
        k(   77) = (   0.4884828   0.0229655   0.0000000), wk =   0.0156250
        k(   78) = (   0.4942414   0.0114828   0.0000000), wk =   0.0156250
        k(   79) = (   0.5000000   0.0000000   0.0000000), wk =   0.0156250
        k(   80) = (   0.4897959  -0.0000000   0.0000000), wk =   0.0156250
        k(   81) = (   0.4795918  -0.0000000   0.0000000), wk =   0.0156250
        k(   82) = (   0.4693878   0.0000000   0.0000000), wk =   0.0156250
        k(   83) = (   0.4591837   0.0000000   0.0000000), wk =   0.0156250
        k(   84) = (   0.4489796   0.0000000   0.0000000), wk =   0.0156250
        k(   85) = (   0.4387755  -0.0000000   0.0000000), wk =   0.0156250
        k(   86) = (   0.4285714   0.0000000   0.0000000), wk =   0.0156250
        k(   87) = (   0.4183673   0.0000000   0.0000000), wk =   0.0156250
        k(   88) = (   0.4081633  -0.0000000   0.0000000), wk =   0.0156250
        k(   89) = (   0.3979592  -0.0000000   0.0000000), wk =   0.0156250
        k(   90) = (   0.3877551  -0.0000000   0.0000000), wk =   0.0156250
        k(   91) = (   0.3775510   0.0000000   0.0000000), wk =   0.0156250
        k(   92) = (   0.3673469   0.0000000   0.0000000), wk =   0.0156250
        k(   93) = (   0.3571429  -0.0000000   0.0000000), wk =   0.0156250
        k(   94) = (   0.3469388  -0.0000000   0.0000000), wk =   0.0156250
        k(   95) = (   0.3367347   0.0000000   0.0000000), wk =   0.0156250
        k(   96) = (   0.3265306   0.0000000   0.0000000), wk =   0.0156250
        k(   97) = (   0.3163265  -0.0000000   0.0000000), wk =   0.0156250
        k(   98) = (   0.3061224  -0.0000000   0.0000000), wk =   0.0156250
        k(   99) = (   0.2959184  -0.0000000   0.0000000), wk =   0.0156250
        k(  100) = (   0.2857143   0.0000000   0.0000000), wk =   0.0156250
        k(  101) = (   0.2755102   0.0000000   0.0000000), wk =   0.0156250
        k(  102) = (   0.2653061  -0.0000000   0.0000000), wk =   0.0156250
        k(  103) = (   0.2551020  -0.0000000   0.0000000), wk =   0.0156250
        k(  104) = (   0.2448980  -0.0000000   0.0000000), wk =   0.0156250
        k(  105) = (   0.2346939  -0.0000000   0.0000000), wk =   0.0156250
        k(  106) = (   0.2244898  -0.0000000   0.0000000), wk =   0.0156250
        k(  107) = (   0.2142857   0.0000000   0.0000000), wk =   0.0156250
        k(  108) = (   0.2040816  -0.0000000   0.0000000), wk =   0.0156250
        k(  109) = (   0.1938776  -0.0000000   0.0000000), wk =   0.0156250
        k(  110) = (   0.1836735   0.0000000   0.0000000), wk =   0.0156250
        k(  111) = (   0.1734694  -0.0000000   0.0000000), wk =   0.0156250
        k(  112) = (   0.1632653   0.0000000   0.0000000), wk =   0.0156250
        k(  113) = (   0.1530612  -0.0000000   0.0000000), wk =   0.0156250
        k(  114) = (   0.1428571   0.0000000   0.0000000), wk =   0.0156250
        k(  115) = (   0.1326531  -0.0000000   0.0000000), wk =   0.0156250
        k(  116) = (   0.1224490   0.0000000   0.0000000), wk =   0.0156250
        k(  117) = (   0.1122449  -0.0000000   0.0000000), wk =   0.0156250
        k(  118) = (   0.1020408  -0.0000000   0.0000000), wk =   0.0156250
        k(  119) = (   0.0918367   0.0000000   0.0000000), wk =   0.0156250
        k(  120) = (   0.0816327   0.0000000   0.0000000), wk =   0.0156250
        k(  121) = (   0.0714286   0.0000000   0.0000000), wk =   0.0156250
        k(  122) = (   0.0612245   0.0000000   0.0000000), wk =   0.0156250
        k(  123) = (   0.0510204  -0.0000000   0.0000000), wk =   0.0156250
        k(  124) = (   0.0408163   0.0000000   0.0000000), wk =   0.0156250
        k(  125) = (   0.0306122  -0.0000000   0.0000000), wk =   0.0156250
        k(  126) = (   0.0204082   0.0000000   0.0000000), wk =   0.0156250
        k(  127) = (   0.0102041   0.0000000   0.0000000), wk =   0.0156250
        k(  128) = (   0.0000000   0.0000000   0.0000000), wk =   0.0156250

     Dense  grid:   133157 G-vectors     FFT dimensions: (  40,  40, 192)

     Dynamical RAM for                 wfc:       0.18 MB

     Dynamical RAM for     wfc (w. buffer):      11.46 MB

     Dynamical RAM for           str. fact:       0.06 MB

     Dynamical RAM for           local pot:       0.00 MB

     Dynamical RAM for          nlocal pot:       0.19 MB

     Dynamical RAM for                qrad:       3.21 MB

     Dynamical RAM for          rho,v,vnew:       0.19 MB

     Dynamical RAM for           G-vectors:       0.12 MB

     Dynamical RAM for          h,s,v(r/c):       0.01 MB

     Dynamical RAM for          <psi|beta>:       0.04 MB

     Dynamical RAM for                 psi:       0.35 MB

     Dynamical RAM for                hpsi:       0.35 MB

     Dynamical RAM for      wfcinit/wfcrot:       0.41 MB

     Estimated static dynamical RAM per process >      15.49 MB

     Estimated max dynamical RAM per process >      16.25 MB

     Estimated total dynamical RAM >       2.28 GB

     The potential is recalculated from file :
     ./MoSe2.save/charge-density

     Starting wfcs are random

     Band Structure Calculation
     Davidson diagonalization with overlap

     Computing kpt #:     1  of    64 on this pool
     total cpu time spent up to now is        1.6 secs

     Computing kpt #:     2  of    64 on this pool
     total cpu time spent up to now is        2.3 secs

     Computing kpt #:     3  of    64 on this pool
     total cpu time spent up to now is        3.0 secs

     Computing kpt #:     4  of    64 on this pool
     total cpu time spent up to now is        3.6 secs

     Computing kpt #:     5  of    64 on this pool
     total cpu time spent up to now is        4.3 secs

     Computing kpt #:     6  of    64 on this pool
     total cpu time spent up to now is        5.1 secs

     Computing kpt #:     7  of    64 on this pool
     c_bands:  1 eigenvalues not converged
     total cpu time spent up to now is        6.0 secs

     Computing kpt #:     8  of    64 on this pool
     total cpu time spent up to now is        6.7 secs

     Computing kpt #:     9  of    64 on this pool
     total cpu time spent up to now is        7.4 secs

     Computing kpt #:    10  of    64 on this pool
     total cpu time spent up to now is        8.3 secs

     Computing kpt #:    11  of    64 on this pool
     total cpu time spent up to now is        8.9 secs

     Computing kpt #:    12  of    64 on this pool
     total cpu time spent up to now is        9.6 secs

     Computing kpt #:    13  of    64 on this pool
     total cpu time spent up to now is       10.3 secs

     Computing kpt #:    14  of    64 on this pool
     total cpu time spent up to now is       11.0 secs

     Computing kpt #:    15  of    64 on this pool
     total cpu time spent up to now is       11.7 secs

     Computing kpt #:    16  of    64 on this pool
     total cpu time spent up to now is       12.5 secs

     Computing kpt #:    17  of    64 on this pool
     total cpu time spent up to now is       13.3 secs

     Computing kpt #:    18  of    64 on this pool
     total cpu time spent up to now is       14.0 secs

     Computing kpt #:    19  of    64 on this pool
     total cpu time spent up to now is       14.9 secs

     Computing kpt #:    20  of    64 on this pool
     total cpu time spent up to now is       15.7 secs

     Computing kpt #:    21  of    64 on this pool
     total cpu time spent up to now is       16.4 secs

     Computing kpt #:    22  of    64 on this pool
     total cpu time spent up to now is       17.1 secs

     Computing kpt #:    23  of    64 on this pool
     total cpu time spent up to now is       17.8 secs

     Computing kpt #:    24  of    64 on this pool
     total cpu time spent up to now is       18.5 secs

     Computing kpt #:    25  of    64 on this pool
     total cpu time spent up to now is       19.2 secs

     Computing kpt #:    26  of    64 on this pool
     total cpu time spent up to now is       19.9 secs

     Computing kpt #:    27  of    64 on this pool
     total cpu time spent up to now is       20.9 secs

     Computing kpt #:    28  of    64 on this pool
     total cpu time spent up to now is       21.6 secs

     Computing kpt #:    29  of    64 on this pool
     total cpu time spent up to now is       22.2 secs

     Computing kpt #:    30  of    64 on this pool
     total cpu time spent up to now is       23.0 secs

     Computing kpt #:    31  of    64 on this pool
     total cpu time spent up to now is       23.8 secs

     Computing kpt #:    32  of    64 on this pool
     total cpu time spent up to now is       24.6 secs

     Computing kpt #:    33  of    64 on this pool
     total cpu time spent up to now is       25.3 secs

     Computing kpt #:    34  of    64 on this pool
     total cpu time spent up to now is       25.9 secs

     Computing kpt #:    35  of    64 on this pool
     total cpu time spent up to now is       26.6 secs

     Computing kpt #:    36  of    64 on this pool
     total cpu time spent up to now is       27.2 secs

     Computing kpt #:    37  of    64 on this pool
     total cpu time spent up to now is       27.9 secs

     Computing kpt #:    38  of    64 on this pool
     total cpu time spent up to now is       28.6 secs

     Computing kpt #:    39  of    64 on this pool
     total cpu time spent up to now is       29.4 secs

     Computing kpt #:    40  of    64 on this pool
     total cpu time spent up to now is       30.2 secs

     Computing kpt #:    41  of    64 on this pool
     total cpu time spent up to now is       30.9 secs

     Computing kpt #:    42  of    64 on this pool
     total cpu time spent up to now is       31.6 secs

     Computing kpt #:    43  of    64 on this pool
     total cpu time spent up to now is       32.2 secs

     Computing kpt #:    44  of    64 on this pool
     total cpu time spent up to now is       32.9 secs

     Computing kpt #:    45  of    64 on this pool
     total cpu time spent up to now is       33.6 secs

     Computing kpt #:    46  of    64 on this pool
     total cpu time spent up to now is       34.3 secs

     Computing kpt #:    47  of    64 on this pool
     total cpu time spent up to now is       34.9 secs

     Computing kpt #:    48  of    64 on this pool
     total cpu time spent up to now is       35.6 secs

     Computing kpt #:    49  of    64 on this pool
     total cpu time spent up to now is       36.3 secs

     Computing kpt #:    50  of    64 on this pool
     total cpu time spent up to now is       37.2 secs

     Computing kpt #:    51  of    64 on this pool
     total cpu time spent up to now is       38.0 secs

     Computing kpt #:    52  of    64 on this pool
     total cpu time spent up to now is       38.7 secs

     Computing kpt #:    53  of    64 on this pool
     total cpu time spent up to now is       39.4 secs

     Computing kpt #:    54  of    64 on this pool
     total cpu time spent up to now is       40.1 secs

     Computing kpt #:    55  of    64 on this pool
     total cpu time spent up to now is       41.0 secs

     Computing kpt #:    56  of    64 on this pool
     total cpu time spent up to now is       41.9 secs

     Computing kpt #:    57  of    64 on this pool
     total cpu time spent up to now is       42.8 secs

     Computing kpt #:    58  of    64 on this pool
     total cpu time spent up to now is       43.7 secs

     Computing kpt #:    59  of    64 on this pool
     total cpu time spent up to now is       44.4 secs

     Computing kpt #:    60  of    64 on this pool
     total cpu time spent up to now is       45.1 secs

     Computing kpt #:    61  of    64 on this pool
     total cpu time spent up to now is       45.7 secs

     Computing kpt #:    62  of    64 on this pool
     total cpu time spent up to now is       46.4 secs

     Computing kpt #:    63  of    64 on this pool
     total cpu time spent up to now is       47.0 secs

     Computing kpt #:    64  of    64 on this pool
     total cpu time spent up to now is       47.6 secs

     ethr =  2.17E-12,  avg # of iterations = 62.7

     total cpu time spent up to now is       47.6 secs

     End of band structure calculation

          k = 0.0000 0.0000 0.0000 ( 16581 PWs)   bands (ev):

   -58.7900 -45.3820 -45.3820 -45.3817 -45.3817 -45.3305 -45.3305 -45.3296
   -45.3296 -45.3115 -45.3094 -32.9319 -32.7662 -32.7662 -12.1011 -11.1020
    -3.2886  -0.0611  -0.0611   0.2511   0.9126   0.9126   1.8158   4.8931
     4.8931   5.1235   5.1235   6.6495   7.3284   7.8490   9.0477  10.4950
    11.1177  12.6219  12.9622  12.9622  14.3546  15.0099  15.0099  16.2532
    16.8245  16.8902  18.6406  18.6406  18.7533  18.7533  19.3348  19.5849
    22.0318  22.0318

          k = 0.0068 0.0118 0.0000 ( 16577 PWs)   bands (ev):

   -58.7900 -45.3820 -45.3820 -45.3817 -45.3817 -45.3305 -45.3305 -45.3296
   -45.3296 -45.3115 -45.3094 -32.9318 -32.7665 -32.7663 -12.0992 -11.1010
    -3.2863  -0.0662  -0.0592   0.2430   0.9093   0.9180   1.8153   4.8863
     4.8961   5.1129   5.1205   6.6554   7.3312   7.8579   9.0515  10.5076
    11.1202  12.6100  12.9683  12.9695  14.3554  14.9685  15.0119  16.2743
    16.8484  16.8981  18.5784  18.6433  18.7383  18.7405  19.3400  19.6563
    22.0242  22.0483

          k = 0.0136 0.0235 0.0000 ( 16574 PWs)   bands (ev):

   -58.7899 -45.3820 -45.3820 -45.3817 -45.3817 -45.3305 -45.3305 -45.3296
   -45.3296 -45.3115 -45.3094 -32.9316 -32.7675 -32.7665 -12.0936 -11.0979
    -3.2793  -0.0815  -0.0536   0.2197   0.8995   0.9335   1.8139   4.8663
     4.9053   5.0821   5.1115   6.6724   7.3396   7.8846   9.0628  10.5452
    11.1280  12.5768  12.9841  12.9916  14.3575  14.8573  15.0180  16.3221
    16.9213  16.9219  18.4315  18.6513  18.6922  18.7042  19.3564  19.8320
    22.0036  22.0966

          k = 0.0204 0.0353 0.0000 ( 16588 PWs)   bands (ev):

   -58.7898 -45.3820 -45.3820 -45.3817 -45.3817 -45.3305 -45.3305 -45.3296
   -45.3296 -45.3114 -45.3093 -32.9312 -32.7692 -32.7669 -12.0844 -11.0929
    -3.2676  -0.1067  -0.0442   0.1834   0.8829   0.9567   1.8113   4.8341
     4.9204   5.0333   5.0966   6.6989   7.3534   7.9281   9.0818  10.6063
    11.1411  12.5271  13.0057  13.0281  14.3605  14.7014  15.0278  16.3697
    16.9587  17.0429  18.2559  18.6135  18.6493  18.6654  19.3862  20.0590
    21.9751  22.1742

          k = 0.0272 0.0471 0.0000 ( 16598 PWs)   bands (ev):

   -58.7896 -45.3820 -45.3819 -45.3817 -45.3816 -45.3305 -45.3305 -45.3296
   -45.3296 -45.3114 -45.3093 -32.9307 -32.7715 -32.7674 -12.0715 -11.0858
    -3.2515  -0.1414  -0.0311   0.1369   0.8596   0.9852   1.8075   4.7916
     4.9414   4.9697   5.0759   6.7329   7.3725   7.9871   9.1088  10.6885
    11.1601  12.4658  13.0300  13.0778  14.3637  14.5215  15.0411  16.4034
    17.0085  17.1947  18.0868  18.5027  18.5815  18.6864  19.4311  20.3103
    21.9429  22.2763

          k = 0.0340 0.0589 0.0000 ( 16588 PWs)   bands (ev):

   -58.7893 -45.3820 -45.3819 -45.3817 -45.3816 -45.3305 -45.3305 -45.3296
   -45.3296 -45.3114 -45.3093 -32.9301 -32.7744 -32.7681 -12.0549 -11.0768
    -3.2308  -0.1853  -0.0145   0.0826   0.8292   1.0164   1.8021   4.7409
     4.8948   4.9678   5.0496   6.7726   7.3968   8.0596   9.1443  10.7885
    11.1858  12.3964  13.0554  13.1389  14.3303  14.3669  15.0569  16.4219
    17.0679  17.3401  17.9598  18.3626  18.5071  18.7168  19.4924  20.5734
    21.9085  22.3961

          k = 0.0408 0.0706 0.0000 ( 16602 PWs)   bands (ev):

   -58.7890 -45.3820 -45.3818 -45.3817 -45.3815 -45.3305 -45.3305 -45.3297
   -45.3296 -45.3114 -45.3093 -32.9293 -32.7780 -32.7690 -12.0348 -11.0658
    -3.2059  -0.2378   0.0056   0.0227   0.7916   1.0484   1.7951   4.6843
     4.8120   4.9995   5.0177   6.8165   7.4261   8.1434   9.1887  10.9010
    11.2207  12.3217  13.0810  13.2089  14.1356  14.3706  15.0742  16.4258
    17.1325  17.4101  17.9369  18.1982  18.4325  18.7609  19.5705  20.8408
    21.8698  22.4727

          k = 0.0476 0.0824 0.0000 ( 16612 PWs)   bands (ev):

   -58.7887 -45.3820 -45.3818 -45.3817 -45.3815 -45.3305 -45.3305 -45.3297
   -45.3296 -45.3114 -45.3092 -32.9284 -32.7821 -32.7699 -12.0111 -11.0528
    -3.1767  -0.2981  -0.0413   0.0290   0.7465   1.0797   1.7859   4.6243
     4.7240   4.9807   5.0361   6.8638   7.4603   8.2359   9.2428  11.0169
    11.2705  12.2439  13.1064  13.2843  13.9425  14.3768  15.0911  16.4151
    17.1953  17.3766  18.0164  18.0372  18.3639  18.8273  19.6652  21.1049
    21.8200  22.2146

          k = 0.0544 0.0942 0.0000 ( 16616 PWs)   bands (ev):

   -58.7882 -45.3819 -45.3817 -45.3817 -45.3814 -45.3306 -45.3305 -45.3298
   -45.3296 -45.3113 -45.3092 -32.9274 -32.7868 -32.7711 -11.9840 -11.0380
    -3.1435  -0.3656  -0.1080   0.0556   0.6937   1.1094   1.7743   4.5633
     4.6336   4.9387   5.0770   6.9140   7.4992   8.3343   9.3073  11.1208
    11.3468  12.1647  13.1312  13.3604  13.7544  14.3888  15.1046  16.3896
    17.2430  17.3107  17.8294  18.1765  18.3084  18.9298  19.7760  21.3476
    21.7440  21.9841

          k = 0.0612 0.1059 0.0000 ( 16620 PWs)   bands (ev):

   -58.7878 -45.3819 -45.3817 -45.3816 -45.3813 -45.3306 -45.3305 -45.3298
   -45.3296 -45.3113 -45.3092 -32.9263 -32.7920 -32.7724 -11.9535 -11.0213
    -3.1064  -0.4394  -0.1767   0.0851   0.6333   1.1365   1.7598   4.5033
     4.5429   4.8923   5.1218   6.9668   7.5429   8.4360   9.3828  11.2001
    11.4584  12.0854  13.1546  13.4315  13.5742  14.4117  15.1108  16.3529
    17.2446  17.2588  17.6651  18.2738  18.2931  19.0814  19.9013  21.4776
    21.6157  21.8602

          k = 0.0680 0.1177 0.0000 ( 16622 PWs)   bands (ev):

   -58.7873 -45.3819 -45.3817 -45.3815 -45.3812 -45.3306 -45.3305 -45.3298
   -45.3296 -45.3112 -45.3091 -32.9250 -32.7977 -32.7738 -11.9197 -11.0029
    -3.0658  -0.5188  -0.2465   0.1172   0.5650   1.1607   1.7421   4.4464
     4.4536   4.8420   5.1700   7.0223   7.5911   8.5387   9.4699  11.2604
    11.5947  12.0071  13.1756  13.4052  13.4913  14.4517  15.1044  16.3141
    17.1471  17.2329  17.5724  18.2682  18.3681  19.2815  20.0379  21.3623
    21.4127  21.5941

          k = 0.0748 0.1295 0.0000 ( 16622 PWs)   bands (ev):

   -58.7868 -45.3819 -45.3817 -45.3814 -45.3811 -45.3306 -45.3305 -45.3299
   -45.3296 -45.3112 -45.3091 -32.9237 -32.8038 -32.7755 -11.8826 -10.9826
    -3.0219  -0.6029  -0.3167   0.1516   0.4892   1.1814   1.7210   4.3674
     4.3940   4.7883   5.2209   7.0807   7.6439   8.6404   9.5685  11.3123
    11.7393  11.9305  13.1927  13.2510  13.5356  14.5136  15.0799  16.2859
    16.9584  17.2321  17.5417  18.2971  18.4052  19.5147  20.1787  21.1535
    21.1746  21.3475

          k = 0.0816 0.1413 0.0000 ( 16650 PWs)   bands (ev):

   -58.7862 -45.3819 -45.3817 -45.3813 -45.3810 -45.3306 -45.3305 -45.3299
   -45.3297 -45.3111 -45.3090 -32.9222 -32.8104 -32.7772 -11.8425 -10.9607
    -2.9751  -0.6908  -0.3871   0.1878   0.4061   1.1984   1.6961   4.2852
     4.3474   4.7321   5.2741   7.1420   7.7011   8.7400   9.6782  11.3612
    11.8563  11.8789  13.1175  13.2037  13.5638  14.5990  15.0338  16.2799
    16.7312  17.2517  17.5238  18.3602  18.4126  19.7615  20.3038  20.8753
    20.9942  21.1228

          k = 0.0883 0.1530 0.0000 ( 16640 PWs)   bands (ev):

   -58.7856 -45.3818 -45.3817 -45.3812 -45.3809 -45.3307 -45.3305 -45.3300
   -45.3297 -45.3111 -45.3089 -32.9206 -32.8173 -32.7791 -11.7994 -10.9372
    -2.9257  -0.7817  -0.4571   0.2253   0.3162   1.2115   1.6674   4.2080
     4.3076   4.6743   5.3289   7.2065   7.7626   8.8368   9.7974  11.4088
    11.7847  12.0003  13.0138  13.2057  13.5802  14.7041  14.9663  16.3021
    16.4916  17.2865  17.5022  18.3954  18.4524  19.9978  20.3536  20.5966
    20.8393  20.9731

          k = 0.0951 0.1648 0.0000 ( 16636 PWs)   bands (ev):

   -58.7849 -45.3818 -45.3817 -45.3811 -45.3808 -45.3307 -45.3305 -45.3301
   -45.3297 -45.3110 -45.3089 -32.9190 -32.8244 -32.7812 -11.7535 -10.9122
    -2.8742  -0.8745  -0.5266   0.2202   0.2633   1.2205   1.6350   4.1363
     4.2751   4.6158   5.3846   7.2742   7.8284   8.9310   9.9241  11.4550
    11.7162  12.0877  12.9537  13.1967  13.5913  14.8207  14.8818  16.2527
    16.3523  17.3322  17.4764  18.3573  18.5671  20.1812  20.2387  20.3287
    20.7085  20.9768

          k = 0.1019 0.1766 0.0000 ( 16638 PWs)   bands (ev):

   -58.7843 -45.3818 -45.3817 -45.3809 -45.3807 -45.3307 -45.3305 -45.3301
   -45.3297 -45.3110 -45.3088 -32.9173 -32.8319 -32.7834 -11.7049 -10.8856
    -2.8211  -0.9684  -0.5955   0.1188   0.3011   1.2253   1.5994   4.0704
     4.2502   4.5578   5.4406   7.3453   7.8983   9.0231  10.0554  11.4990
    11.6513  12.1274  12.9494  13.1761  13.6025  14.7867  14.9336  16.0291
    16.4259  17.3847  17.4490  18.3026  18.6987  20.0056  20.0745  20.2538
    20.5441  21.0709

          k = 0.1087 0.1883 0.0000 ( 16650 PWs)   bands (ev):

   -58.7836 -45.3818 -45.3817 -45.3808 -45.3806 -45.3307 -45.3305 -45.3302
   -45.3297 -45.3109 -45.3088 -32.9155 -32.8396 -32.7858 -11.6537 -10.8577
    -2.7671  -1.0623  -0.6636   0.0132   0.3375   1.2259   1.5611   4.0101
     4.2330   4.5017   5.4964   7.4199   7.9722   9.1136  10.1875  11.5387
    11.5912  12.1219  12.9987  13.1458  13.6165  14.6877  15.0126  15.8490
    16.5155  17.4228  17.4394  18.2391  18.8433  19.7463  19.8172  20.2319
    20.3240  21.1393

          k = 0.1155 0.2001 0.0000 ( 16654 PWs)   bands (ev):

   -58.7828 -45.3818 -45.3817 -45.3807 -45.3804 -45.3308 -45.3305 -45.3303
   -45.3297 -45.3108 -45.3087 -32.9137 -32.8474 -32.7884 -11.6002 -10.8286
    -2.7130  -1.1552  -0.7313  -0.0954   0.3713   1.2222   1.5214   3.9551
     4.2233   4.4486   5.5513   7.4980   8.0500   9.2034  10.3151  11.5380
    11.5707  12.0909  13.0833  13.1097  13.6328  14.5905  15.0037  15.7647
    16.6110  17.3993  17.4894  18.1809  18.9962  19.4904  19.5569  20.0852
    20.1775  21.0852

          k = 0.1223 0.2119 0.0000 ( 16690 PWs)   bands (ev):

   -58.7821 -45.3817 -45.3817 -45.3806 -45.3803 -45.3308 -45.3305 -45.3303
   -45.3298 -45.3108 -45.3086 -32.9118 -32.8553 -32.7911 -11.5444 -10.7982
    -2.6598  -1.2457  -0.7988  -0.2056   0.4007   1.2143   1.4816   3.9049
     4.2210   4.4000   5.6047   7.5796   8.1314   9.2931  10.4311  11.4962
    11.5908  12.0561  13.0723  13.1841  13.6491  14.4997  14.8815  15.8002
    16.6977  17.3797  17.5270  18.1486  19.1298  19.2572  19.3110  19.8459
    20.1152  20.8995

          k = 0.1291 0.2236 0.0000 ( 16678 PWs)   bands (ev):

   -58.7813 -45.3817 -45.3816 -45.3804 -45.3802 -45.3309 -45.3305 -45.3304
   -45.3298 -45.3107 -45.3085 -32.9099 -32.8633 -32.7939 -11.4866 -10.7668
    -2.6086  -1.3324  -0.8669  -0.3156   0.4238   1.2022   1.4436   3.8592
     4.2256   4.3569   5.6562   7.6648   8.2164   9.3833  10.5254  11.4731
    11.5946  12.0327  13.0379  13.2890  13.6611  14.4192  14.6944  15.9066
    16.7547  17.3641  17.5516  18.1623  18.9830  19.0287  19.3635  19.6114
    20.0505  20.6650

          k = 0.1359 0.2354 0.0000 ( 16678 PWs)   bands (ev):

   -58.7806 -45.3817 -45.3816 -45.3803 -45.3801 -45.3309 -45.3305 -45.3305
   -45.3298 -45.3106 -45.3085 -32.9079 -32.8712 -32.7969 -11.4271 -10.7344
    -2.5611  -1.4137  -0.9366  -0.4233   0.4384   1.1859   1.4095   3.8175
     4.2365   4.3204   5.7052   7.7535   8.3047   9.4743  10.5861  11.4779
    11.5814  12.0271  13.0099  13.3911  13.6619  14.3523  14.4913  16.0374
    16.7583  17.3515  17.5790  18.2263  18.7603  18.7815  19.3856  19.5382
    19.9829  20.4228

          k = 0.1427 0.2472 0.0000 ( 16694 PWs)   bands (ev):

   -58.7798 -45.3817 -45.3815 -45.3802 -45.3800 -45.3309 -45.3305 -45.3305
   -45.3298 -45.3106 -45.3084 -32.9059 -32.8791 -32.8000 -11.3660 -10.7011
    -2.5192  -1.4873  -1.0093  -0.5262   0.4424   1.1655   1.3814   3.7799
     4.2533   4.2908   5.7513   7.8458   8.3960   9.5666  10.6046  11.5170
    11.5558  12.0377  12.9910  13.4866  13.6383  14.3016  14.3036  16.1691
    16.6982  17.3380  17.6250  18.3280  18.5227  18.5721  19.1723  19.7233
    19.9133  20.1836

          k = 0.1495 0.2590 0.0000 ( 16696 PWs)   bands (ev):

   -58.7790 -45.3817 -45.3815 -45.3801 -45.3799 -45.3310 -45.3306 -45.3305
   -45.3298 -45.3105 -45.3083 -32.9040 -32.8869 -32.8033 -11.3035 -10.6672
    -2.4853  -1.5508  -1.0867  -0.6217   0.4339   1.1411   1.3611   3.7468
     4.2682   4.2752   5.7942   7.9415   8.4902   9.6601  10.5819  11.5249
    11.5874  12.0588  12.9832  13.5697  13.5739  14.1606  14.2690  16.2884
    16.5848  17.3156  17.6843  18.2811  18.4051  18.4480  18.9777  19.8485
    19.9092  19.9515

          k = 0.1563 0.2707 0.0000 ( 16682 PWs)   bands (ev):

   -58.7782 -45.3817 -45.3814 -45.3799 -45.3797 -45.3310 -45.3307 -45.3305
   -45.3299 -45.3104 -45.3082 -32.9020 -32.8946 -32.8068 -11.2399 -10.6327
    -2.4621  -1.6015  -1.1703  -0.7075   0.4119   1.1129   1.3494   3.7190
     4.2520   4.3017   5.8337   8.0405   8.5871   9.7547  10.5265  11.4946
    11.6780  12.0854  12.9869  13.4452  13.6527  14.0790  14.2550  16.3858
    16.4362  17.2726  17.7376  18.0461  18.2840  18.5589  18.8135  19.7287
    19.8047  20.0211

          k = 0.1631 0.2825 0.0000 ( 16698 PWs)   bands (ev):

   -58.7775 -45.3817 -45.3814 -45.3798 -45.3796 -45.3311 -45.3307 -45.3305
   -45.3299 -45.3104 -45.3082 -32.9020 -32.9000 -32.8104 -11.1756 -10.5978
    -2.4519  -1.6371  -1.2607  -0.7820   0.3764   1.0808   1.3463   3.6975
     4.2416   4.3320   5.8695   8.1427   8.6863   9.8497  10.4490  11.4686
    11.7753  12.1144  12.9997  13.2866  13.7242  14.0456  14.2590  16.2666
    16.4538  17.1997  17.7614  17.8203  18.2133  18.6136  18.7100  19.5184
    19.8083  19.8919

          k = 0.1699 0.2943 0.0000 ( 16700 PWs)   bands (ev):

   -58.7767 -45.3816 -45.3813 -45.3797 -45.3795 -45.3311 -45.3308 -45.3304
   -45.3299 -45.3103 -45.3081 -32.9092 -32.8981 -32.8141 -11.1106 -10.5626
    -2.4558  -1.6564  -1.3575  -0.8450   0.3284   1.0451   1.3507   3.6834
     4.2360   4.3655   5.9017   8.2478   8.7876   9.9431  10.3592  11.4494
    11.8657  12.1443  12.9975  13.1487  13.7906  14.0374  14.2786  16.0851
    16.4838  17.1012  17.6080  17.7343  18.1799  18.5898  18.6784  19.3225
    19.7566  19.8827

          k = 0.1767 0.3060 0.0000 ( 16696 PWs)   bands (ev):

   -58.7759 -45.3816 -45.3813 -45.3796 -45.3794 -45.3312 -45.3308 -45.3304
   -45.3299 -45.3102 -45.3080 -32.9160 -32.8961 -32.8179 -11.0454 -10.5273
    -2.4732  -1.6602  -1.4592  -0.8971   0.2695   1.0060   1.3612   3.6776
     4.2339   4.4013   5.9304   8.3556   8.8907  10.0262  10.2708  11.4382
    11.9335  12.1749  12.9026  13.1352  13.8546  14.0405  14.3104  15.8974
    16.4654  16.9914  17.4179  17.6514  18.1543  18.5837  18.6223  19.1412
    19.6633  20.0252

          k = 0.1835 0.3178 0.0000 ( 16702 PWs)   bands (ev):

   -58.7752 -45.3816 -45.3812 -45.3795 -45.3793 -45.3312 -45.3309 -45.3304
   -45.3300 -45.3102 -45.3079 -32.9225 -32.8943 -32.8219 -10.9803 -10.4920
    -2.5016  -1.6509  -1.5639  -0.9397   0.2013   0.9637   1.3763   3.6810
     4.2344   4.4386   5.9557   8.4656   8.9955  10.0522  10.2341  11.4356
    11.9583  12.2067  12.7949  13.1909  13.9181  14.0482  14.3512  15.7073
    16.3915  16.8745  17.2680  17.5283  18.1071  18.4960  18.6430  18.9715
    19.6308  20.2078

          k = 0.1903 0.3296 0.0000 ( 16706 PWs)   bands (ev):

   -58.7745 -45.3815 -45.3811 -45.3794 -45.3793 -45.3313 -45.3309 -45.3304
   -45.3300 -45.3101 -45.3079 -32.9287 -32.8924 -32.8260 -10.9155 -10.4569
    -2.5374  -1.6699  -1.6321  -0.9740   0.1256   0.9184   1.3945   3.6936
     4.2366   4.4768   5.9780   8.5771   9.1015   9.9785  10.2938  11.4417
    11.9225  12.2409  12.7401  13.2700  13.9817  14.0575  14.3984  15.5180
    16.2701  16.7351  17.1765  17.3845  18.0248  18.3558  18.7107  18.8088
    19.6639  20.3940

          k = 0.1971 0.3414 0.0000 ( 16690 PWs)   bands (ev):

   -58.7738 -45.3815 -45.3811 -45.3793 -45.3792 -45.3313 -45.3310 -45.3304
   -45.3300 -45.3101 -45.3078 -32.9344 -32.8906 -32.8303 -10.8514 -10.4221
    -2.5773  -1.7755  -1.6071  -1.0011   0.0438   0.8703   1.4151   3.7152
     4.2399   4.5148   5.9979   8.6888   9.2086   9.8745  10.3819  11.4567
    11.8313  12.2787  12.7425  13.3649  14.0441  14.0669  14.4502  15.3325
    16.1197  16.5695  17.1349  17.2330  17.9130  18.1973  18.6507  18.7902
    19.7500  20.5396

          k = 0.2039 0.3531 0.0000 ( 16690 PWs)   bands (ev):

   -58.7731 -45.3815 -45.3810 -45.3792 -45.3791 -45.3314 -45.3310 -45.3303
   -45.3301 -45.3100 -45.3077 -32.9397 -32.8889 -32.8346 -10.7883 -10.3880
    -2.6184  -1.8794  -1.5789  -1.0218  -0.0431   0.8198   1.4377   3.7449
     4.2439   4.5520   6.0157   8.7988   9.3165   9.7675  10.4710  11.4803
    11.7112  12.3214  12.7821  13.4720  14.0757  14.1021  14.5047  15.1553
    15.9561  16.3904  17.0811  17.1162  17.7863  18.0289  18.4984  18.8718
    19.8658  20.5990

          k = 0.2107 0.3649 0.0000 ( 16696 PWs)   bands (ev):

   -58.7724 -45.3814 -45.3809 -45.3791 -45.3790 -45.3314 -45.3311 -45.3303
   -45.3301 -45.3099 -45.3077 -32.9445 -32.8872 -32.8391 -10.7265 -10.3545
    -2.6582  -1.9808  -1.5497  -1.0367  -0.1340   0.7670   1.4622   3.7808
     4.2491   4.5873   6.0324   8.9027   9.4248   9.6670  10.5508  11.5122
    11.5897  12.3699  12.8403  13.5872  14.0838  14.1504  14.5567  14.9958
    15.7891  16.2078  16.9332  17.0968  17.6609  17.8557  18.3550  18.9481
    19.9867  20.5740

          k = 0.2175 0.3767 0.0000 ( 16708 PWs)   bands (ev):

   -58.7718 -45.3814 -45.3808 -45.3791 -45.3790 -45.3314 -45.3311 -45.3303
   -45.3301 -45.3099 -45.3076 -32.9487 -32.8856 -32.8436 -10.6665 -10.3219
    -2.6951  -2.0787  -1.5212  -1.0463  -0.2283   0.7124   1.4888   3.8199
     4.2568   4.6200   6.0484   8.9919   9.5334   9.5831  10.6098  11.4901
    11.5521  12.4252  12.9066  13.7061  14.0917  14.1816  14.5841  14.8824
    15.6251  16.0268  16.7918  17.0574  17.5518  17.6810  18.2263  19.0124
    20.0879  20.5119

          k = 0.2243 0.3884 0.0000 ( 16712 PWs)   bands (ev):

   -58.7712 -45.3813 -45.3808 -45.3790 -45.3790 -45.3315 -45.3312 -45.3303
   -45.3302 -45.3098 -45.3076 -32.9525 -32.8841 -32.8483 -10.6084 -10.2904
    -2.7276  -2.1726  -1.4945  -1.0510  -0.3252   0.6563   1.5177   3.8579
     4.2699   4.6493   6.0647   9.0488   9.5333   9.6421  10.6338  11.4340
    11.5997  12.4874  12.9759  13.8207  14.1028  14.1835  14.5466  14.8667
    15.4690  15.8502  16.6587  16.9851  17.4656  17.5074  18.1199  19.0577
    20.1465  20.4472

          k = 0.2311 0.4002 0.0000 ( 16704 PWs)   bands (ev):

   -58.7706 -45.3812 -45.3807 -45.3789 -45.3789 -45.3315 -45.3312 -45.3303
   -45.3302 -45.3098 -45.3075 -32.9557 -32.8827 -32.8530 -10.5527 -10.2600
    -2.7547  -2.2619  -1.4707  -1.0513  -0.4241   0.5990   1.5493   3.8890
     4.2922   4.6746   6.0817   9.0532   9.5361   9.7505  10.6156  11.4348
    11.6543  12.5568  13.0455  13.9133  14.1295  14.1380  14.4821  14.9272
    15.3252  15.6799  16.5351  16.8827  17.3370  17.3923  18.0453  19.0779
    20.1489  20.3959

          k = 0.2379 0.4120 0.0000 ( 16702 PWs)   bands (ev):

   -58.7701 -45.3812 -45.3806 -45.3789 -45.3789 -45.3316 -45.3312 -45.3302
   -45.3302 -45.3098 -45.3075 -32.9583 -32.8814 -32.8578 -10.4997 -10.2311
    -2.7755  -2.3462  -1.4502  -1.0474  -0.5245   0.5410   1.5837   3.9077
     4.3278   4.6952   6.1001   9.0096   9.5831   9.8584  10.5674  11.4868
    11.7153  12.6326  13.1138  13.9546  14.0417  14.1948  14.4421  15.0149
    15.1982  15.5182  16.4218  16.7639  17.1718  17.3137  18.0087  19.0694
    20.0999  20.3622

          k = 0.2447 0.4238 0.0000 ( 16712 PWs)   bands (ev):

   -58.7696 -45.3811 -45.3805 -45.3789 -45.3789 -45.3316 -45.3312 -45.3303
   -45.3302 -45.3097 -45.3074 -32.9604 -32.8801 -32.8627 -10.4496 -10.2037
    -2.7894  -2.4251  -1.4337  -1.0397  -0.6256   0.4827   1.6210   3.9111
     4.3781   4.7108   6.1203   8.9413   9.6429   9.9658  10.5149  11.5740
    11.7817  12.7140  13.1793  13.9167  13.9447  14.2912  14.4222  15.0915
    15.1108  15.3685  16.3195  16.6413  17.0140  17.2210  18.0078  19.0328
    20.0175  20.3405

          k = 0.2514 0.4355 0.0000 ( 16728 PWs)   bands (ev):

   -58.7692 -45.3810 -45.3804 -45.3789 -45.3788 -45.3317 -45.3312 -45.3303
   -45.3302 -45.3097 -45.3074 -32.9619 -32.8790 -32.8676 -10.4028 -10.1779
    -2.7958  -2.4983  -1.4214  -1.0286  -0.7267   0.4245   1.6611   3.8997
     4.4415   4.7214   6.1423   8.8652   9.6858  10.0724  10.4855  11.6825
    11.8523  12.7990  13.2405  13.7845  13.9031  14.3910  14.4094  15.0050
    15.2054  15.2382  16.2286  16.5236  16.8664  17.1162  18.0335  18.9726
    19.9196  20.3163

          k = 0.2582 0.4473 0.0000 ( 16738 PWs)   bands (ev):

   -58.7687 -45.3810 -45.3804 -45.3789 -45.3788 -45.3317 -45.3313 -45.3303
   -45.3302 -45.3096 -45.3073 -32.9628 -32.8779 -32.8726 -10.3594 -10.1540
    -2.7943  -2.5656  -1.4141  -1.0144  -0.8267   0.3669   1.7035   3.8762
     4.5140   4.7270   6.1662   8.7898   9.6914  10.1779  10.5003  11.8038
    11.9249  12.8847  13.2948  13.6575  13.8400  14.3987  14.4760  14.9288
    15.1453  15.2901  16.1498  16.4167  16.7326  17.0051  18.0761  18.8952
    19.8181  20.2715

          k = 0.2650 0.4591 0.0000 ( 16748 PWs)   bands (ev):

   -58.7684 -45.3809 -45.3803 -45.3789 -45.3788 -45.3317 -45.3313 -45.3304
   -45.3302 -45.3096 -45.3073 -32.9632 -32.8776 -32.8769 -10.3197 -10.1320
    -2.7847  -2.6268  -1.4125  -0.9977  -0.9240   0.3106   1.7479   3.8436
     4.5917   4.7279   6.1916   8.7192   9.6559  10.2823  10.5640  11.9324
    11.9969  12.9653  13.3383  13.5460  13.7638  14.3901  14.5317  14.8454
    15.1144  15.3548  16.0839  16.3249  16.6178  16.8925  18.1278  18.8074
    19.7206  20.1962

          k = 0.2718 0.4708 0.0000 ( 16744 PWs)   bands (ev):

   -58.7680 -45.3808 -45.3802 -45.3789 -45.3788 -45.3318 -45.3313 -45.3304
   -45.3301 -45.3096 -45.3073 -32.9630 -32.8826 -32.8761 -10.2838 -10.1119
    -2.7669  -2.6819  -1.4185  -1.0163  -0.9789   0.2561   1.7934   3.8046
     4.6713   4.7248   6.2181   8.6563   9.5902  10.3851  10.6657  12.0642
    12.0645  13.0297  13.3627  13.4641  13.6865  14.3860  14.5503  14.7565
    15.1454  15.3886  16.0302  16.2507  16.5288  16.7824  18.1831  18.7153
    19.6317  20.0963

          k = 0.2786 0.4826 0.0000 ( 16752 PWs)   bands (ev):

   -58.7677 -45.3807 -45.3801 -45.3790 -45.3789 -45.3318 -45.3313 -45.3304
   -45.3301 -45.3096 -45.3072 -32.9622 -32.8875 -32.8753 -10.2519 -10.0940
    -2.7410  -2.7307  -1.4352  -1.0995  -0.9587   0.2040   1.8391   3.7615
     4.7183   4.7499   6.2449   8.6030   9.5075  10.4858  10.7917  12.1219
    12.1965  13.0594  13.3540  13.4330  13.6261  14.3899  14.5353  14.6753
    15.2167  15.3842  15.9833  16.1949  16.4731  16.6779  18.2380  18.6245
    19.5549  19.9833

          k = 0.2854 0.4944 0.0000 ( 16728 PWs)   bands (ev):

   -58.7675 -45.3806 -45.3800 -45.3790 -45.3789 -45.3318 -45.3313 -45.3305
   -45.3301 -45.3095 -45.3072 -32.9610 -32.8925 -32.8746 -10.2240 -10.0782
    -2.7732  -2.7071  -1.4669  -1.1683  -0.9379   0.1551   1.8839   3.7166
     4.7093   4.8249   6.2714   8.5610   9.4170  10.5837  10.9318  12.1639
    12.3240  13.0492  13.3042  13.4611  13.5941  14.4053  14.5005  14.6052
    15.3094  15.3436  15.9326  16.1550  16.4532  16.5817  18.2896  18.5410
    19.4920  19.8661

          k = 0.2922 0.5061 0.0000 ( 16726 PWs)   bands (ev):

   -58.7672 -45.3805 -45.3799 -45.3791 -45.3789 -45.3319 -45.3313 -45.3305
   -45.3301 -45.3095 -45.3072 -32.9594 -32.8973 -32.8741 -10.2001 -10.0647
    -2.8095  -2.6659  -1.5167  -1.2185  -0.9171   0.1103   1.9265   3.6719
     4.6986   4.8941   6.2967   8.5318   9.3239  10.6775  11.0791  12.1855
    12.4411  13.0223  13.2302  13.5275  13.5793  14.4348  14.4620  14.5418
    15.2768  15.4119  15.8702  16.1263  16.4614  16.4963  18.3364  18.4708
    19.4441  19.7497

          k = 0.2990 0.5179 0.0000 ( 16730 PWs)   bands (ev):

   -58.7671 -45.3804 -45.3798 -45.3791 -45.3790 -45.3319 -45.3313 -45.3305
   -45.3301 -45.3095 -45.3072 -32.9573 -32.9019 -32.8736 -10.1803 -10.0533
    -2.8396  -2.6184  -1.5819  -1.2513  -0.8974   0.0704   1.9657   3.6296
     4.6870   4.9556   6.3200   8.5166   9.2312  10.7655  11.2277  12.1856
    12.5385  12.9985  13.1554  13.5682  13.6128  14.4207  14.4774  14.4915
    15.1970  15.5179  15.7940  16.1023  16.4230  16.4829  18.3781  18.4195
    19.4105  19.6371

          k = 0.3058 0.5297 0.0000 ( 16724 PWs)   bands (ev):

   -58.7669 -45.3804 -45.3797 -45.3792 -45.3790 -45.3319 -45.3313 -45.3305
   -45.3301 -45.3095 -45.3072 -32.9550 -32.9064 -32.8732 -10.1644 -10.0441
    -2.8637  -2.5661  -1.6550  -1.2722  -0.8796   0.0364   2.0001   3.5917
     4.6757   5.0077   6.3405   8.5162   9.1411  10.8452  11.3713  12.1689
    12.6045  12.9821  13.0963  13.5598  13.7092  14.3607  14.4730  14.5262
    15.1197  15.6233  15.7042  16.0789  16.3600  16.5045  18.3912  18.4152
    19.3893  19.5308

          k = 0.3126 0.5415 0.0000 ( 16716 PWs)   bands (ev):

   -58.7668 -45.3803 -45.3797 -45.3793 -45.3791 -45.3319 -45.3312 -45.3306
   -45.3301 -45.3095 -45.3072 -32.9526 -32.9104 -32.8729 -10.1523 -10.0370
    -2.8820  -2.5120  -1.7282  -1.2859  -0.8647   0.0090   2.0282   3.5600
     4.6653   5.0491   6.3576   8.5302   9.0555  10.9131  11.5020  12.1438
    12.6324  12.9705  13.0593  13.5614  13.8133  14.2902  14.4784  14.5635
    15.0671  15.6013  15.7249  16.0570  16.3007  16.5188  18.3864  18.4477
    19.3704  19.3952

          k = 0.3194 0.5532 0.0000 ( 16732 PWs)   bands (ev):

   -58.7667 -45.3802 -45.3796 -45.3793 -45.3791 -45.3319 -45.3312 -45.3306
   -45.3301 -45.3095 -45.3072 -32.9503 -32.9138 -32.8727 -10.1439 -10.0321
    -2.8947  -2.4611  -1.7935  -1.2951  -0.8536  -0.0109   2.0490   3.5362
     4.6568   5.0789   6.3704   8.5565   8.9775  10.9655  11.6089  12.1196
    12.6337  12.9609  13.0354  13.5782  13.9192  14.2233  14.4932  14.5650
    15.0669  15.4869  15.8191  16.0429  16.2355  16.5242  18.3996  18.4739
    19.2029  19.3535

          k = 0.3262 0.5650 0.0000 ( 16756 PWs)   bands (ev):

   -58.7667 -45.3802 -45.3795 -45.3793 -45.3792 -45.3319 -45.3312 -45.3306
   -45.3300 -45.3095 -45.3072 -32.9485 -32.9163 -32.8726 -10.1390 -10.0291
    -2.9022  -2.4218  -1.8413  -1.3008  -0.8468  -0.0230   2.0618   3.5213
     4.6511   5.0969   6.3786   8.5881   8.9149  10.9986  11.6795  12.1031
    12.6305  12.9531  13.0145  13.6032  14.0117  14.1727  14.5076  14.5320
    15.1256  15.3662  15.8993  16.0465  16.1583  16.5236  18.4192  18.4894
    19.0886  19.2971

          k = 0.3330 0.5768 0.0000 ( 16746 PWs)   bands (ev):

   -58.7667 -45.3801 -45.3795 -45.3794 -45.3792 -45.3319 -45.3312 -45.3306
   -45.3300 -45.3095 -45.3072 -32.9477 -32.9173 -32.8726 -10.1373 -10.0281
    -2.9048  -2.4054  -1.8605  -1.3031  -0.8444  -0.0272   2.0663   3.5161
     4.6489   5.1032   6.3816   8.6061   8.8859  11.0104  11.7048  12.0975
    12.6318  12.9494  13.0026  13.6170  14.0559  14.1522  14.5078  14.5140
    15.2036  15.2678  15.9440  16.0755  16.0853  16.5218  18.4297  18.4931
    19.0497  19.2754

          k = 0.3388 0.5668 0.0000 ( 16748 PWs)   bands (ev):

   -58.7667 -45.3802 -45.3795 -45.3793 -45.3792 -45.3319 -45.3312 -45.3306
   -45.3300 -45.3095 -45.3072 -32.9483 -32.9166 -32.8726 -10.1384 -10.0288
    -2.9031  -2.4173  -1.8471  -1.3011  -0.8459  -0.0245   2.0634   3.5196
     4.6506   5.0991   6.3794   8.5904   8.9089  11.0027  11.6892  12.1004
    12.6256  12.9529  13.0152  13.6057  14.0220  14.1653  14.5096  14.5248
    15.1436  15.3445  15.8967  16.0799  16.1303  16.5245  18.4206  18.4942
    19.0718  19.2902

          k = 0.3445 0.5569 0.0000 ( 16740 PWs)   bands (ev):

   -58.7667 -45.3802 -45.3796 -45.3793 -45.3792 -45.3319 -45.3312 -45.3306
   -45.3301 -45.3095 -45.3072 -32.9498 -32.9146 -32.8727 -10.1414 -10.0307
    -2.8985  -2.4491  -1.8122  -1.2943  -0.8500  -0.0170   2.0553   3.5295
     4.6558   5.0876   6.3733   8.5511   8.9689  10.9822  11.6488  12.1062
    12.6020  12.9640  13.0522  13.5764  13.9368  14.1934  14.5009  14.5478
    15.1011  15.4479  15.8015  16.1271  16.1897  16.5351  18.3945  18.5028
    19.1258  19.3286

          k = 0.3503 0.5470 0.0000 ( 16734 PWs)   bands (ev):

   -58.7667 -45.3802 -45.3796 -45.3793 -45.3791 -45.3319 -45.3312 -45.3306
   -45.3301 -45.3095 -45.3072 -32.9520 -32.9117 -32.8728 -10.1463 -10.0336
    -2.8913  -2.4952  -1.7640  -1.2802  -0.8560  -0.0055   2.0428   3.5451
     4.6648   5.0693   6.3630   8.5000   9.0532  10.9513  11.5910  12.1108
    12.5610  12.9830  13.1024  13.5393  13.8231  14.2108  14.5041  14.5364
    15.1199  15.5522  15.6979  16.1867  16.2624  16.5575  18.3552  18.5236
    19.1966  19.3818

          k = 0.3560 0.5370 0.0000 ( 16736 PWs)   bands (ev):

   -58.7668 -45.3803 -45.3797 -45.3792 -45.3790 -45.3319 -45.3313 -45.3306
   -45.3301 -45.3095 -45.3072 -32.9547 -32.9082 -32.8730 -10.1527 -10.0376
    -2.8817  -2.5500  -1.7119  -1.2553  -0.8633   0.0093   2.0268   3.5657
     4.6781   5.0451   6.3486   8.4441   9.1541  10.9127  11.5214  12.1108
    12.5081  13.0050  13.1441  13.5082  13.6989  14.1889  14.4843  14.5419
    15.1962  15.5990  15.6531  16.2446  16.3563  16.5958  18.3079  18.5564
    19.2620  19.4238

          k = 0.3618 0.5271 0.0000 ( 16728 PWs)   bands (ev):

   -58.7669 -45.3804 -45.3798 -45.3791 -45.3790 -45.3319 -45.3313 -45.3305
   -45.3301 -45.3095 -45.3072 -32.9577 -32.9041 -32.8732 -10.1606 -10.0426
    -2.8702  -2.6096  -1.6642  -1.2151  -0.8712   0.0266   2.0081   3.5902
     4.6960   5.0157   6.3301   8.3868   9.2674  10.8689  11.4442  12.1043
    12.4482  13.0155  13.1547  13.4959  13.5849  14.1267  14.4109  14.6164
    15.3030  15.5114  15.7503  16.2985  16.4724  16.6530  18.2578  18.5986
    19.2989  19.5008

          k = 0.3676 0.5172 0.0000 ( 16724 PWs)   bands (ev):

   -58.7670 -45.3805 -45.3799 -45.3791 -45.3789 -45.3319 -45.3313 -45.3305
   -45.3301 -45.3095 -45.3072 -32.9608 -32.8996 -32.8734 -10.1697 -10.0483
    -2.8569  -2.6716  -1.6269  -1.1566  -0.8790   0.0456   1.9875   3.6178
     4.7186   4.9819   6.3078   8.3294   9.3907  10.8218  11.3621  12.0907
    12.3845  12.9841  13.1263  13.4984  13.5134  14.0447  14.3329  14.7152
    15.4152  15.4386  15.8489  16.3510  16.6070  16.7299  18.2091  18.6459
    19.3157  19.5610

          k = 0.3733 0.5072 0.0000 ( 16718 PWs)   bands (ev):

   -58.7671 -45.3806 -45.3800 -45.3790 -45.3788 -45.3319 -45.3313 -45.3305
   -45.3301 -45.3095 -45.3072 -32.9640 -32.8950 -32.8737 -10.1799 -10.0547
    -2.8423  -2.7342  -1.6018  -1.0795  -0.8862   0.0655   1.9659   3.6477
     4.7463   4.9445   6.2818   8.2727   9.5224  10.7729  11.2768  12.0708
    12.3188  12.8859  13.0686  13.4908  13.5084  13.9662  14.2595  14.8290
    15.3825  15.5135  15.9593  16.4048  16.7566  16.8246  18.1655  18.6940
    19.3267  19.6219

          k = 0.3791 0.4973 0.0000 ( 16710 PWs)   bands (ev):

   -58.7672 -45.3807 -45.3801 -45.3789 -45.3788 -45.3318 -45.3313 -45.3305
   -45.3301 -45.3095 -45.3072 -32.9672 -32.8901 -32.8739 -10.1909 -10.0618
    -2.8268  -2.7966  -1.5875  -0.9866  -0.8922   0.0857   1.9439   3.6789
     4.7792   4.9043   6.2523   8.2171   9.6610  10.7235  11.1895  12.0457
    12.2520  12.7346  12.9923  13.4495  13.5530  13.9118  14.1978  14.9490
    15.3467  15.5863  16.0904  16.4621  16.9185  16.9326  18.1310  18.7389
    19.3370  19.6845

          k = 0.3848 0.4874 0.0000 ( 16704 PWs)   bands (ev):

   -58.7673 -45.3808 -45.3801 -45.3788 -45.3787 -45.3318 -45.3313 -45.3304
   -45.3301 -45.3095 -45.3072 -32.9703 -32.8852 -32.8742 -10.2027 -10.0694
    -2.8581  -2.8106  -1.5813  -0.8965  -0.8815   0.1057   1.9220   3.7108
     4.8174   4.8618   6.2198   8.1629   9.8052  10.6744  11.1009  12.0166
    12.1846  12.5547  12.9022  13.3726  13.6150  13.8853  14.1566  15.0554
    15.3463  15.6334  16.2426  16.5240  17.0475  17.0900  18.1103  18.7779
    19.3475  19.7494

          k = 0.3906 0.4774 0.0000 ( 16714 PWs)   bands (ev):

   -58.7674 -45.3809 -45.3802 -45.3788 -45.3787 -45.3318 -45.3314 -45.3304
   -45.3302 -45.3095 -45.3072 -32.9734 -32.8803 -32.8746 -10.2150 -10.0773
    -2.9181  -2.7940  -1.5809  -0.8989  -0.7675   0.1249   1.9007   3.7427
     4.8179   4.8610   6.1845   8.1101   9.9535  10.6261  11.0118  11.9846
    12.1167  12.3606  12.8001  13.2776  13.6668  13.8747  14.1498  15.1104
    15.4141  15.6618  16.4093  16.5916  17.1625  17.2689  18.1092  18.8096
    19.3574  19.8165

          k = 0.3963 0.4675 0.0000 ( 16702 PWs)   bands (ev):

   -58.7676 -45.3810 -45.3803 -45.3787 -45.3786 -45.3318 -45.3314 -45.3304
   -45.3302 -45.3095 -45.3072 -32.9765 -32.8753 -32.8749 -10.2277 -10.0856
    -2.9762  -2.7775  -1.5843  -0.8989  -0.6469   0.1430   1.8801   3.7739
     4.7732   4.9099   6.1469   8.0590  10.1038  10.5792  10.9232  11.9498
    12.0481  12.1603  12.6881  13.1814  13.6882  13.8686  14.1901  15.1128
    15.5469  15.6790  16.5821  16.6652  17.2713  17.4523  18.1349  18.8338
    19.3659  19.8857

          k = 0.4021 0.4576 0.0000 ( 16702 PWs)   bands (ev):

   -58.7677 -45.3811 -45.3804 -45.3786 -45.3785 -45.3317 -45.3314 -45.3303
   -45.3302 -45.3095 -45.3072 -32.9794 -32.8752 -32.8704 -10.2407 -10.0940
    -3.0323  -2.7612  -1.5904  -0.8964  -0.5216   0.1596   1.8605   3.8039
     4.7283   4.9640   6.1075   8.0095  10.2520  10.5338  10.8380  11.9022
    11.9685  11.9784  12.5701  13.0925  13.6780  13.8616  14.2742  15.0931
    15.6908  15.7094  16.7451  16.7514  17.3719  17.6372  18.1933  18.8516
    19.3730  19.9565

          k = 0.4079 0.4476 0.0000 ( 16708 PWs)   bands (ev):

   -58.7678 -45.3812 -45.3805 -45.3785 -45.3785 -45.3317 -45.3314 -45.3303
   -45.3302 -45.3096 -45.3073 -32.9822 -32.8756 -32.8656 -10.2537 -10.1025
    -3.0860  -2.7455  -1.5984  -0.8913  -0.3930   0.1744   1.8419   3.8323
     4.6838   5.0232   6.0667   7.9618  10.3868  10.4901  10.7661  11.7380
    11.8925  11.9072  12.4522  13.0136  13.6486  13.8517  14.3859  15.0648
    15.7021  15.8839  16.8315  16.9040  17.4720  17.8188  18.2862  18.8649
    19.3809  20.0284

          k = 0.4136 0.4377 0.0000 ( 16704 PWs)   bands (ev):

   -58.7680 -45.3813 -45.3806 -45.3785 -45.3784 -45.3317 -45.3314 -45.3303
   -45.3302 -45.3096 -45.3073 -32.9849 -32.8759 -32.8609 -10.2666 -10.1111
    -3.1372  -2.7305  -1.6075  -0.8837  -0.2624   0.1872   1.8243   3.8585
     4.6402   5.0871   6.0251   7.9157  10.4481  10.4666  10.7473  11.5359
    11.8346  11.8560  12.3404  12.9443  13.6106  13.8390  14.5107  15.0319
    15.7172  16.0621  16.9247  17.0232  17.5893  17.9897  18.4095  18.8779
    19.3937  20.1006

          k = 0.4194 0.4278 0.0000 ( 16688 PWs)   bands (ev):

   -58.7681 -45.3814 -45.3807 -45.3784 -45.3784 -45.3316 -45.3314 -45.3303
   -45.3302 -45.3096 -45.3073 -32.9874 -32.8763 -32.8564 -10.2793 -10.1195
    -3.1857  -2.7165  -1.6175  -0.8735  -0.1306   0.1980   1.8074   3.8822
     4.5983   5.1553   5.9833   7.8715  10.4077  10.4415  10.8288  11.3347
    11.7621  11.8226  12.2396  12.8836  13.5699  13.8239  14.6385  14.9954
    15.7407  16.2382  17.0252  17.0988  17.7390  18.1376  18.5560  18.8994
    19.4173  20.1726

          k = 0.4251 0.4178 0.0000 ( 16700 PWs)   bands (ev):

   -58.7683 -45.3815 -45.3808 -45.3784 -45.3783 -45.3316 -45.3315 -45.3303
   -45.3302 -45.3096 -45.3073 -32.9898 -32.8766 -32.8520 -10.2917 -10.1277
    -3.2314  -2.7035  -1.6279  -0.8609   0.0014   0.2067   1.7910   3.9029
     4.5585   5.2271   5.9418   7.8290  10.3625  10.3684  10.9556  11.1379
    11.6937  11.7909  12.1526  12.8306  13.5293  13.8070  14.7610  14.9557
    15.7780  16.4070  17.1339  17.1367  17.9202  18.2449  18.7183  18.9446
    19.4578  20.2438

          k = 0.4309 0.4079 0.0000 ( 16702 PWs)   bands (ev):

   -58.7684 -45.3815 -45.3808 -45.3783 -45.3783 -45.3315 -45.3315 -45.3304
   -45.3302 -45.3096 -45.3073 -32.9921 -32.8770 -32.8478 -10.3037 -10.1357
    -3.2741  -2.6916  -1.6385  -0.8463   0.1328   0.2133   1.7748   3.9204
     4.5215   5.3017   5.9016   7.7884  10.2681  10.3293  10.9480  11.0807
    11.6387  11.7609  12.0806  12.7850  13.4903  13.7890  14.8710  14.9128
    15.8349  16.5629  17.1503  17.2513  18.1233  18.2983  18.8900  19.0253
    19.5211  20.3135

          k = 0.4367 0.3980 0.0000 ( 16706 PWs)   bands (ev):

   -58.7685 -45.3816 -45.3809 -45.3783 -45.3782 -45.3315 -45.3315 -45.3304
   -45.3301 -45.3096 -45.3073 -32.9942 -32.8773 -32.8439 -10.3151 -10.1433
    -3.3138  -2.6810  -1.6489  -0.8299   0.2179   0.2626   1.7584   3.9343
     4.4877   5.3779   5.8634   7.7496  10.1687  10.2884  10.7684  11.1762
    11.6148  11.7327  12.0242  12.7468  13.4536  13.7705  14.8667  14.9624
    15.9167  16.7014  17.1502  17.3750  18.3056  18.3402  19.0656  19.1362
    19.6116  20.3807

          k = 0.4424 0.3880 0.0000 ( 16694 PWs)   bands (ev):

   -58.7686 -45.3817 -45.3810 -45.3782 -45.3781 -45.3315 -45.3315 -45.3304
   -45.3301 -45.3096 -45.3073 -32.9961 -32.8776 -32.8402 -10.3258 -10.1505
    -3.3503  -2.6715  -1.6591  -0.8121   0.2205   0.3902   1.7412   3.9446
     4.4577   5.4539   5.8288   7.7129  10.0685  10.2413  10.6049  11.2161
    11.6410  11.7064  11.9862  12.7167  13.4197  13.7520  14.8173  15.0323
    16.0253  16.8199  17.1427  17.4968  18.2925  18.5656  19.2386  19.2605
    19.7308  20.4371

          k = 0.4482 0.3781 0.0000 ( 16704 PWs)   bands (ev):

   -58.7687 -45.3818 -45.3810 -45.3782 -45.3781 -45.3315 -45.3314 -45.3305
   -45.3301 -45.3096 -45.3073 -32.9979 -32.8779 -32.8368 -10.3358 -10.1572
    -3.3836  -2.6632  -1.6689  -0.7934   0.2215   0.5147   1.7226   3.9511
     4.4316   5.5263   5.8004   7.6783   9.9702  10.1783  10.4684  11.2052
    11.6823  11.6989  11.9765  12.6960  13.3888  13.7338  14.7645  15.0819
    16.1590  16.9185  17.1315  17.5983  18.2913  18.7959  19.3866  19.3996
    19.8736  20.3906

          k = 0.4539 0.3682 0.0000 ( 16708 PWs)   bands (ev):

   -58.7688 -45.3818 -45.3811 -45.3782 -45.3781 -45.3315 -45.3314 -45.3305
   -45.3301 -45.3096 -45.3073 -32.9995 -32.8781 -32.8337 -10.3449 -10.1634
    -3.4136  -2.6561  -1.6780  -0.7743   0.2210   0.6352   1.7021   3.9542
     4.4098   5.5879   5.7847   7.6460   9.8760  10.0882  10.3719  11.1711
    11.6605  11.7395  12.0116  12.6875  13.3610  13.7161  14.7084  15.1150
    16.3132  16.9988  17.1189  17.6542  18.3349  19.0271  19.5121  19.5296
    20.0275  20.2489

          k = 0.4597 0.3582 0.0000 ( 16692 PWs)   bands (ev):

   -58.7689 -45.3819 -45.3811 -45.3781 -45.3780 -45.3315 -45.3313 -45.3305
   -45.3300 -45.3096 -45.3073 -33.0009 -32.8784 -32.8309 -10.3532 -10.1690
    -3.4402  -2.6500  -1.6864  -0.7554   0.2193   0.7511   1.6789   3.9542
     4.3921   5.6243   5.7949   7.6163   9.7881   9.9751  10.3129  11.1311
    11.6409  11.7464  12.0838  12.6952  13.3364  13.6991  14.6494  15.1361
    16.4822  17.0632  17.1065  17.6557  18.4357  19.2502  19.5925  19.6378
    20.1545  20.1741

          k = 0.4654 0.3483 0.0000 ( 16690 PWs)   bands (ev):

   -58.7690 -45.3819 -45.3812 -45.3781 -45.3780 -45.3316 -45.3313 -45.3306
   -45.3300 -45.3096 -45.3073 -33.0022 -32.8786 -32.8285 -10.3605 -10.1739
    -3.4633  -2.6450  -1.6939  -0.7374   0.2168   0.8617   1.6524   3.9517
     4.3781   5.6299   5.8353   7.5894   9.7082   9.8561  10.2761  11.0925
    11.6238  11.7368  12.1609  12.7240  13.3151  13.6828  14.5881  15.1490
    16.6606  17.0954  17.1136  17.6205  18.5773  19.3962  19.6150  19.7628
    20.1534  20.2938

          k = 0.4712 0.3383 0.0000 ( 16682 PWs)   bands (ev):

   -58.7691 -45.3820 -45.3812 -45.3781 -45.3780 -45.3316 -45.3312 -45.3306
   -45.3300 -45.3096 -45.3074 -33.0032 -32.8787 -32.8264 -10.3667 -10.1781
    -3.4830  -2.6409  -1.7004  -0.7207   0.2137   0.9662   1.6218   3.9477
     4.3675   5.6199   5.8890   7.5657   9.6380   9.7438  10.2510  11.0584
    11.6092  11.7230  12.2221  12.7760  13.2970  13.6672  14.5260  15.1565
    16.8418  17.0881  17.1516  17.5707  18.7372  19.3109  19.7854  19.8815
    20.2075  20.3811

          k = 0.4770 0.3284 0.0000 ( 16686 PWs)   bands (ev):

   -58.7691 -45.3820 -45.3812 -45.3781 -45.3779 -45.3316 -45.3312 -45.3307
   -45.3300 -45.3096 -45.3074 -33.0041 -32.8789 -32.8246 -10.3719 -10.1817
    -3.4992  -2.6376  -1.7059  -0.7061   0.2106   1.0642   1.5864   3.9430
     4.3598   5.6062   5.9423   7.5455   9.5788   9.6450  10.2330  11.0299
    11.5972  11.7097  12.2622  12.8461  13.2822  13.6522  14.4654  15.1607
    17.0041  17.1012  17.1783  17.5211  18.8993  19.1446  19.9811  20.0014
    20.2678  20.4570

          k = 0.4827 0.3185 0.0000 ( 16682 PWs)   bands (ev):

   -58.7692 -45.3820 -45.3813 -45.3781 -45.3779 -45.3316 -45.3312 -45.3307
   -45.3300 -45.3097 -45.3074 -33.0047 -32.8790 -32.8233 -10.3760 -10.1844
    -3.5118  -2.6352  -1.7102  -0.6940   0.2077   1.1551   1.5454   3.9383
     4.3543   5.5936   5.9885   7.5294   9.5317   9.5641  10.2201  11.0075
    11.5878  11.6985  12.2855  12.9227  13.2708  13.6379  14.4098  15.1629
    17.0494  17.1947  17.2258  17.4797  18.9688  19.0509  20.0452  20.2097
    20.3183  20.5508

          k = 0.4885 0.3085 0.0000 ( 16688 PWs)   bands (ev):

   -58.7692 -45.3821 -45.3813 -45.3781 -45.3779 -45.3316 -45.3311 -45.3307
   -45.3300 -45.3097 -45.3074 -33.0052 -32.8791 -32.8223 -10.3789 -10.1864
    -3.5208  -2.6335  -1.7133  -0.6851   0.2053   1.2385   1.4984   3.9345
     4.3507   5.5838   6.0240   7.5176   9.4975   9.5040  10.2113  10.9914
    11.5811  11.6903  12.2977  12.9919  13.2625  13.6251  14.3640  15.1639
    17.0499  17.2026  17.3777  17.4504  18.8085  19.1788  20.0704  20.3381
    20.4101  20.6714

          k = 0.4942 0.2986 0.0000 ( 16688 PWs)   bands (ev):

   -58.7692 -45.3821 -45.3813 -45.3781 -45.3779 -45.3316 -45.3311 -45.3307
   -45.3300 -45.3097 -45.3074 -33.0055 -32.8791 -32.8217 -10.3807 -10.1876
    -3.5262  -2.6325  -1.7152  -0.6795   0.2038   1.3143   1.4448   3.9320
     4.3487   5.5777   6.0462   7.5103   9.4670   9.4767  10.2062  10.9818
    11.5770  11.6852  12.3035  13.0405  13.2576  13.6155  14.3334  15.1643
    17.0482  17.2052  17.4338  17.4930  18.6893  19.2672  20.0719  20.3619
    20.5436  20.7926

          k = 0.5000 0.2887 0.0000 ( 16664 PWs)   bands (ev):

   -58.7693 -45.3821 -45.3813 -45.3781 -45.3779 -45.3316 -45.3311 -45.3307
   -45.3300 -45.3097 -45.3074 -33.0056 -32.8792 -32.8215 -10.3813 -10.1880
    -3.5281  -2.6321  -1.7158  -0.6776   0.2033   1.3750   1.3915   3.9311
     4.3481   5.5756   6.0538   7.5079   9.4545   9.4698  10.2045  10.9786
    11.5757  11.6835  12.3052  13.0581  13.2560  13.6119  14.3226  15.1644
    17.0474  17.2056  17.4285  17.5375  18.6434  19.2994  20.0693  20.3686
    20.5963  20.8468

          k = 0.4898 0.2828 0.0000 ( 16678 PWs)   bands (ev):

   -58.7693 -45.3821 -45.3813 -45.3781 -45.3779 -45.3316 -45.3311 -45.3307
   -45.3300 -45.3097 -45.3074 -33.0054 -32.8792 -32.8215 -10.3837 -10.1892
    -3.5246  -2.6291  -1.7156  -0.6764   0.2041   1.3723   1.3901   3.9312
     4.3458   5.5734   6.0532   7.5163   9.4529   9.4646  10.2039  10.9685
    11.5753  11.6804  12.3231  13.0627  13.2628  13.6021  14.3410  15.1618
    17.0523  17.1765  17.4539  17.5354  18.6499  19.2991  20.0653  20.3564
    20.5839  20.8420

          k = 0.4796 0.2769 0.0000 ( 16694 PWs)   bands (ev):

   -58.7693 -45.3821 -45.3813 -45.3781 -45.3779 -45.3316 -45.3311 -45.3307
   -45.3300 -45.3097 -45.3074 -33.0047 -32.8794 -32.8213 -10.3908 -10.1928
    -3.5143  -2.6201  -1.7149  -0.6728   0.2063   1.3645   1.3861   3.9315
     4.3390   5.5667   6.0517   7.5412   9.4481   9.4492  10.2016  10.9391
    11.5748  11.6734  12.3733  13.0765  13.2828  13.5768  14.3926  15.1545
    17.0669  17.1112  17.5078  17.5290  18.6689  19.2978  20.0528  20.3194
    20.5490  20.8287

          k = 0.4694 0.2710 0.0000 ( 16696 PWs)   bands (ev):

   -58.7694 -45.3821 -45.3813 -45.3781 -45.3779 -45.3316 -45.3311 -45.3307
   -45.3300 -45.3097 -45.3074 -33.0035 -32.8796 -32.8210 -10.4026 -10.1987
    -3.4973  -2.6050  -1.7138  -0.6669   0.2101   1.3518   1.3793   3.9320
     4.3280   5.5557   6.0490   7.5822   9.4242   9.4407  10.1969  10.8924
    11.5753  11.6664  12.4475  13.0993  13.3144  13.5452  14.4691  15.1436
    17.0323  17.0910  17.5183  17.5672  18.6988  19.2949  20.0302  20.2577
    20.4973  20.8101

          k = 0.4592 0.2651 0.0000 ( 16688 PWs)   bands (ev):

   -58.7696 -45.3821 -45.3813 -45.3781 -45.3779 -45.3315 -45.3311 -45.3307
   -45.3300 -45.3097 -45.3074 -33.0018 -32.8800 -32.8206 -10.4190 -10.2069
    -3.4737  -2.5841  -1.7124  -0.6585   0.2155   1.3346   1.3698   3.9329
     4.3131   5.5402   6.0454   7.6385   9.3902   9.4312  10.1888  10.8320
    11.5789  11.6618  12.5365  13.1311  13.3550  13.5173  14.5627  15.1310
    16.9481  17.1244  17.5031  17.6234  18.7367  19.2888  19.9958  20.1742
    20.4342  20.7914

          k = 0.4490 0.2592 0.0000 ( 16694 PWs)   bands (ev):

   -58.7698 -45.3821 -45.3813 -45.3782 -45.3780 -45.3315 -45.3311 -45.3307
   -45.3300 -45.3097 -45.3074 -32.9996 -32.8805 -32.8201 -10.4398 -10.2173
    -3.4438  -2.5574  -1.7108  -0.6478   0.2224   1.3137   1.3575   3.9343
     4.2947   5.5203   6.0406   7.7091   9.3483   9.4200  10.1765  10.7617
[...]
   -45.3299 -45.3101 -45.3079 -32.9423 -32.8934 -32.8067 -10.9429 -10.4766
    -2.7554  -1.8654  -1.7478  -0.3446   0.4494   1.0083   1.0947   3.9795
     4.0574   4.9950   5.8845   8.4001   8.9912   9.3179   9.9277  10.1708
    11.3223  12.0602  13.4246  13.5952  14.1993  14.4359  15.6892  15.9260
    16.4402  16.8058  17.1678  17.7747  17.8133  18.3778  19.2543  19.5395
    19.8095  20.4774

          k = 0.3163 0.1826 0.0000 ( 16657 PWs)   bands (ev):

   -58.7754 -45.3820 -45.3815 -45.3792 -45.3790 -45.3310 -45.3309 -45.3307
   -45.3298 -45.3102 -45.3080 -32.9354 -32.8949 -32.8051 -10.9972 -10.5053
    -2.6956  -1.7859  -1.7509  -0.3062   0.4820   0.9651   1.1039   3.9574
     4.0813   4.9362   5.8619   8.3249   8.9165   9.4300   9.9006  10.2312
    11.2776  12.0833  13.4735  13.6041  14.3115  14.4092  15.8237  16.0414
    16.4436  16.7160  17.0135  17.5787  17.9224  18.4008  19.2567  19.5299
    19.7380  20.5481

          k = 0.3061 0.1767 0.0000 ( 16659 PWs)   bands (ev):

   -58.7761 -45.3819 -45.3815 -45.3793 -45.3791 -45.3309 -45.3309 -45.3307
   -45.3298 -45.3103 -45.3080 -32.9283 -32.8965 -32.8035 -11.0520 -10.5343
    -2.6425  -1.7488  -1.7047  -0.2660   0.5167   0.9206   1.1191   3.9377
     4.1075   4.8772   5.8376   8.2472   8.8391   9.5108   9.9058  10.3010
    11.2348  12.0954  13.5139  13.6229  14.3596  14.4229  15.9762  16.1165
    16.4523  16.6236  16.8993  17.3870  18.0564  18.3968  19.3037  19.5162
    19.6729  20.6265

          k = 0.2959 0.1708 0.0000 ( 16647 PWs)   bands (ev):

   -58.7767 -45.3819 -45.3815 -45.3795 -45.3792 -45.3309 -45.3309 -45.3307
   -45.3298 -45.3103 -45.3081 -32.9211 -32.8981 -32.8018 -11.1072 -10.5636
    -2.5988  -1.7393  -1.6223  -0.2241   0.5535   0.8750   1.1401   3.9207
     4.1361   4.8184   5.8116   8.1684   8.7599   9.5423   9.9576  10.3791
    11.1944  12.0962  13.5427  13.6517  14.2998  14.5315  16.1103  16.1240
    16.4864  16.5295  16.8688  17.2025  18.2094  18.3681  19.3911  19.4983
    19.6133  20.7117

          k = 0.2857 0.1650 0.0000 ( 16639 PWs)   bands (ev):

   -58.7773 -45.3819 -45.3816 -45.3796 -45.3794 -45.3309 -45.3308 -45.3307
   -45.3298 -45.3104 -45.3082 -32.9137 -32.8997 -32.8001 -11.1624 -10.5930
    -2.5668  -1.7199  -1.5389  -0.1807   0.5923   0.8284   1.1664   3.9069
     4.1671   4.7605   5.7840   8.0895   8.6798   9.5320  10.0447  10.4647
    11.1577  12.0860  13.5565  13.6895  14.2412  14.6344  16.0142  16.2287
    16.4345  16.5825  16.9321  17.0286  18.3245  18.3747  19.4781  19.5093
    19.5583  20.8032

          k = 0.2755 0.1591 0.0000 ( 16639 PWs)   bands (ev):

   -58.7780 -45.3819 -45.3816 -45.3797 -45.3795 -45.3309 -45.3307 -45.3306
   -45.3298 -45.3104 -45.3082 -32.9062 -32.9014 -32.7984 -11.2175 -10.6224
    -2.5480  -1.6890  -1.4550  -0.1359   0.6328   0.7811   1.1976   3.8966
     4.2002   4.7040   5.7547   8.0111   8.5995   9.4995  10.1433  10.5570
    11.1262  12.0662  13.5527  13.7337  14.1926  14.7277  15.8667  16.2791
    16.3394  16.7510  16.8694  17.0505  18.2772  18.5440  19.4603  19.5073
    19.6489  20.9005

          k = 0.2653 0.1532 0.0000 ( 16639 PWs)   bands (ev):

   -58.7786 -45.3819 -45.3816 -45.3798 -45.3796 -45.3308 -45.3307 -45.3306
   -45.3298 -45.3105 -45.3083 -32.9030 -32.8986 -32.7966 -11.2722 -10.6517
    -2.5427  -1.6461  -1.3709  -0.0897   0.6748   0.7333   1.2328   3.8904
     4.2355   4.6495   5.7237   7.9336   8.5197   9.4567  10.2364  10.6548
    11.1028  12.0383  13.5312  13.7802  14.1590  14.8062  15.7023  16.2451
    16.3059  16.7305  16.9607  17.1875  18.2380  18.7041  19.4557  19.4594
    19.8032  21.0032

          k = 0.2551 0.1473 0.0000 ( 16611 PWs)   bands (ev):

   -58.7793 -45.3819 -45.3816 -45.3800 -45.3797 -45.3308 -45.3306 -45.3306
   -45.3298 -45.3105 -45.3083 -32.9047 -32.8910 -32.7948 -11.3263 -10.6808
    -2.5501  -1.5920  -1.2869  -0.0424   0.6853   0.7180   1.2714   3.8887
     4.2727   4.5977   5.6910   7.8574   8.4407   9.4085  10.3122  10.7574
    11.0918  12.0041  13.4958  13.8232  14.1408  14.8634  15.5406  16.1521
    16.3296  16.6188  17.1908  17.3181  18.2212  18.8319  19.4139  19.4860
    19.9673  21.1110

          k = 0.2449 0.1414 0.0000 ( 16601 PWs)   bands (ev):

   -58.7800 -45.3819 -45.3817 -45.3801 -45.3799 -45.3308 -45.3306 -45.3305
   -45.3298 -45.3106 -45.3084 -32.9064 -32.8833 -32.7931 -11.3797 -10.7096
    -2.5681  -1.5285  -1.2032   0.0061   0.6374   0.7619   1.3125   3.8920
     4.3117   4.5493   5.6568   7.7826   8.3629   9.3570  10.3613  10.8633
    11.0985  11.9655  13.4528  13.8547  14.1348  14.8920  15.3957  16.0611
    16.3579  16.5415  17.4197  17.4326  18.2451  18.9001  19.3703  19.5778
    20.1377  21.2236

          k = 0.2347 0.1355 0.0000 ( 16613 PWs)   bands (ev):

   -58.7806 -45.3819 -45.3817 -45.3802 -45.3800 -45.3308 -45.3306 -45.3305
   -45.3298 -45.3107 -45.3085 -32.9081 -32.8757 -32.7913 -11.4321 -10.7378
    -2.5948  -1.4574  -1.1203   0.0554   0.5896   0.8060   1.3552   3.9007
     4.3523   4.5049   5.6211   7.7095   8.2868   9.3033  10.3778  10.9710
    11.1264  11.9247  13.4085  13.8646  14.1371  14.8864  15.2807  15.9726
    16.3940  16.5043  17.4752  17.6817  18.3252  18.9067  19.3280  19.7336
    20.3108  21.2309

          k = 0.2245 0.1296 0.0000 ( 16619 PWs)   bands (ev):

   -58.7813 -45.3818 -45.3817 -45.3803 -45.3801 -45.3308 -45.3306 -45.3304
   -45.3297 -45.3107 -45.3085 -32.9098 -32.8680 -32.7895 -11.4834 -10.7656
    -2.6280  -1.3806  -1.0382   0.1055   0.5423   0.8497   1.3987   3.9153
     4.3944   4.4653   5.5840   7.6383   8.2125   9.2477  10.3617  11.0783
    11.1741  11.8836  13.3676  13.8433  14.1448  14.8454  15.2071  15.8870
    16.4392  16.5085  17.4849  17.9340  18.4600  18.8750  19.2865  19.9317
    20.4825  21.1960

          k = 0.2143 0.1237 0.0000 ( 16619 PWs)   bands (ev):

   -58.7820 -45.3818 -45.3817 -45.3805 -45.3802 -45.3307 -45.3306 -45.3304
   -45.3297 -45.3108 -45.3086 -32.9114 -32.8605 -32.7878 -11.5335 -10.7927
    -2.6659  -1.2998  -0.9572   0.1563   0.4957   0.8923   1.4421   3.9361
     4.4312   4.4377   5.5457   7.5691   8.1403   9.1904  10.3178  11.1817
    11.2364  11.8449  13.3327  13.7864  14.1561  14.7731  15.1813  15.8049
    16.4940  16.5502  17.4634  18.1812  18.6345  18.8308  19.2456  20.1524
    20.6447  21.1472

          k = 0.2041 0.1178 0.0000 ( 16601 PWs)   bands (ev):

   -58.7826 -45.3818 -45.3817 -45.3806 -45.3803 -45.3307 -45.3306 -45.3303
   -45.3297 -45.3108 -45.3087 -32.9131 -32.8530 -32.7861 -11.5821 -10.8190
    -2.7071  -1.2164  -0.8775   0.2074   0.4500   0.9332   1.4847   3.9634
     4.4032   4.4820   5.5061   7.5019   8.0704   9.1314  10.2528  11.2762
    11.3076  11.8124  13.3044  13.6981  14.1698  14.6767  15.2013  15.7264
    16.5582  16.6221  17.4248  18.3937  18.8130  18.8336  19.2050  20.3820
    20.7772  21.0880

          k = 0.1939 0.1119 0.0000 ( 16601 PWs)   bands (ev):

   -58.7832 -45.3818 -45.3818 -45.3807 -45.3805 -45.3307 -45.3306 -45.3302
   -45.3297 -45.3109 -45.3087 -32.9147 -32.8457 -32.7844 -11.6292 -10.8446
    -2.7504  -1.1313  -0.7990   0.2588   0.4053   0.9714   1.5256   3.9974
     4.3821   4.5271   5.4657   7.4369   8.0030   9.0705  10.1726  11.3534
    11.3833  11.7915  13.2823  13.5902  14.1855  14.5639  15.2587  15.6519
    16.6314  16.7165  17.3783  18.4831  18.9151  19.0467  19.1646  20.5997
    20.8246  21.0348

          k = 0.1837 0.1060 0.0000 ( 16597 PWs)   bands (ev):

   -58.7838 -45.3818 -45.3818 -45.3808 -45.3806 -45.3307 -45.3306 -45.3302
   -45.3297 -45.3109 -45.3088 -32.9162 -32.8385 -32.7827 -11.6746 -10.8693
    -2.7948  -1.0456  -0.7220   0.3101   0.3618   1.0062   1.5643   4.0381
     4.3682   4.5726   5.4244   7.3740   7.9382   9.0074  10.0819  11.4033
    11.4611  11.7877  13.2650  13.4772  14.2029  14.4411  15.3438  15.5814
    16.7129  16.8271  17.3292  18.4486  19.1243  19.1407  19.2654  20.7245
    20.7265  21.0653

          k = 0.1735 0.1002 0.0000 ( 16617 PWs)   bands (ev):

   -58.7844 -45.3818 -45.3818 -45.3809 -45.3807 -45.3307 -45.3306 -45.3301
   -45.3297 -45.3110 -45.3088 -32.9178 -32.8315 -32.7811 -11.7181 -10.8930
    -2.8395  -0.9600  -0.6464   0.3198   0.3612   1.0369   1.6004   4.0856
     4.3623   4.6183   5.3826   7.3133   7.8762   8.9419   9.9847  11.4210
    11.5397  11.7994  13.2510  13.3741  14.2217  14.3132  15.4482  15.5153
    16.8014  16.9490  17.2811  18.3748  19.0841  19.4070  19.4780  20.5368
    20.6911  21.2506

          k = 0.1633 0.0943 0.0000 ( 16635 PWs)   bands (ev):

   -58.7850 -45.3818 -45.3818 -45.3811 -45.3808 -45.3306 -45.3306 -45.3301
   -45.3297 -45.3110 -45.3089 -32.9192 -32.8248 -32.7796 -11.7598 -10.9157
    -2.8839  -0.8753  -0.5723   0.2793   0.4119   1.0627   1.6334   4.1396
     4.3644   4.6640   5.3405   7.2548   7.8171   8.8735   9.8844  11.4124
    11.6185  11.8117  13.2386  13.2957  14.1838  14.2416  15.4534  15.5657
    16.8950  17.0787  17.2361  18.2910  19.0442  19.6523  19.6855  20.3577
    20.5953  21.4882

          k = 0.1531 0.0884 0.0000 ( 16625 PWs)   bands (ev):

   -58.7856 -45.3819 -45.3818 -45.3812 -45.3809 -45.3306 -45.3306 -45.3300
   -45.3297 -45.3111 -45.3089 -32.9206 -32.8183 -32.7781 -11.7994 -10.9372
    -2.9275  -0.7920  -0.4998   0.2406   0.4618   1.0832   1.6632   4.1996
     4.3748   4.7093   5.2983   7.1984   7.7609   8.8020   9.7841  11.3880
    11.6973  11.8055  13.2266  13.2550  14.0553  14.2618  15.3959  15.6915
    16.9909  17.1964  17.2135  18.2073  19.0046  19.6907  19.9622  20.3081
    20.4908  21.7217

          k = 0.1429 0.0825 0.0000 ( 16625 PWs)   bands (ev):

   -58.7861 -45.3819 -45.3818 -45.3813 -45.3810 -45.3306 -45.3305 -45.3300
   -45.3297 -45.3111 -45.3090 -32.9220 -32.8121 -32.7767 -11.8369 -10.9577
    -2.9698  -0.7106  -0.4288   0.2037   0.5107   1.0978   1.6897   4.2652
     4.3933   4.7539   5.2564   7.1442   7.7078   8.7269   9.6863  11.3551
    11.7688  11.7762  13.2139  13.2597  13.9297  14.2817  15.3428  15.8213
    17.0848  17.1642  17.3514  18.1304  18.9656  19.5446  20.1803  20.4433
    20.4437  21.8963

          k = 0.1327 0.0766 0.0000 ( 16611 PWs)   bands (ev):

   -58.7866 -45.3819 -45.3818 -45.3814 -45.3811 -45.3306 -45.3305 -45.3299
   -45.3296 -45.3112 -45.3090 -32.9233 -32.8061 -32.7753 -11.8722 -10.9769
    -3.0104  -0.6319  -0.3594   0.1688   0.5582   1.1063   1.7129   4.3356
     4.4194   4.7974   5.2151   7.0921   7.6579   8.6484   9.5932  11.3174
    11.7009  11.8549  13.1999  13.3091  13.8084  14.3006  15.2941  15.9506
    17.1424  17.1696  17.4909  18.0680  18.9275  19.3230  20.1641  20.6332
    20.6558  21.9629

          k = 0.1224 0.0707 0.0000 ( 16615 PWs)   bands (ev):

   -58.7871 -45.3819 -45.3817 -45.3815 -45.3812 -45.3306 -45.3305 -45.3299
   -45.3296 -45.3112 -45.3091 -32.9245 -32.8005 -32.7740 -11.9052 -10.9950
    -3.0490  -0.5562  -0.2916   0.1361   0.6042   1.1087   1.7330   4.4101
     4.4526   4.8396   5.1747   7.0419   7.6112   8.5666   9.5065  11.2759
    11.6098  11.9335  13.1845  13.3959  13.6925  14.3178  15.2496  16.0744
    17.1344  17.2352  17.6306  18.0304  18.8905  19.0824  20.0596  20.8859
    20.9144  21.9776

          k = 0.1122 0.0648 0.0000 ( 16617 PWs)   bands (ev):

   -58.7875 -45.3819 -45.3817 -45.3815 -45.3812 -45.3306 -45.3305 -45.3298
   -45.3296 -45.3113 -45.3091 -32.9256 -32.7953 -32.7728 -11.9358 -11.0117
    -3.0854  -0.4842  -0.2256   0.1056   0.6482   1.1052   1.7501   4.4876
     4.4919   4.8801   5.1356   6.9937   7.5677   8.4823   9.4274  11.2291
    11.5076  12.0116  13.1674  13.5112  13.5830  14.3326  15.2093  16.1861
    17.1449  17.2704  17.7691  18.0284  18.8397  18.8550  19.9481  21.1034
    21.2042  21.9330

          k = 0.1020 0.0589 0.0000 ( 16617 PWs)   bands (ev):

   -58.7880 -45.3819 -45.3817 -45.3816 -45.3813 -45.3306 -45.3305 -45.3298
   -45.3296 -45.3113 -45.3092 -32.9267 -32.7904 -32.7717 -11.9640 -11.0271
    -3.1193  -0.4163  -0.1614   0.0774   0.6899   1.0962   1.7646   4.5361
     4.5670   4.9185   5.0982   6.9473   7.5277   8.3967   9.3564  11.1723
    11.4081  12.0889  13.1489  13.4807  13.6468  14.3447  15.1731  16.2791
    17.1780  17.2702  17.9052  18.0662  18.6025  18.8212  19.8409  21.2495
    21.4808  21.8598

          k = 0.0918 0.0530 0.0000 ( 16605 PWs)   bands (ev):

   -58.7883 -45.3820 -45.3817 -45.3817 -45.3814 -45.3305 -45.3305 -45.3297
   -45.3296 -45.3113 -45.3092 -32.9276 -32.7860 -32.7707 -11.9896 -11.0411
    -3.1504  -0.3529  -0.0994   0.0516   0.7291   1.0821   1.7766   4.5838
     4.6471   4.9546   5.0628   6.9027   7.4910   8.3114   9.2937  11.0985
    11.3255  12.1649  13.1290  13.3861  13.7967  14.3538  15.1408  16.3481
    17.2337  17.2406  18.0376  18.1367  18.3783  18.7894  19.7415  21.2221
    21.7033  21.9362

          k = 0.0816 0.0471 0.0000 ( 16615 PWs)   bands (ev):

   -58.7887 -45.3820 -45.3818 -45.3817 -45.3815 -45.3305 -45.3305 -45.3297
   -45.3296 -45.3114 -45.3092 -32.9285 -32.7819 -32.7698 -12.0128 -11.0537
    -3.1787  -0.2947  -0.0397   0.0283   0.7653   1.0638   1.7865   4.6335
     4.7267   4.9879   5.0298   6.8600   7.4578   8.2280   9.2390  11.0073
    11.2656  12.2391  13.1080  13.3000  13.9563  14.3600  15.1124  16.3921
    17.1931  17.3021  18.1648  18.1791  18.2273  18.7600  19.6517  21.0586
    21.8213  22.1374

          k = 0.0714 0.0412 0.0000 ( 16605 PWs)   bands (ev):

   -58.7890 -45.3820 -45.3818 -45.3817 -45.3815 -45.3305 -45.3305 -45.3297
   -45.3296 -45.3114 -45.3093 -32.9293 -32.7783 -32.7690 -12.0333 -11.0649
    -3.2040  -0.2421   0.0076   0.0170   0.7981   1.0421   1.7945   4.6833
     4.8040   4.9996   5.0182   6.8193   7.4282   8.1487   9.1921  10.9078
    11.2233  12.3107  13.0862  13.2227  14.1219  14.3634  15.0877  16.4142
    17.1376  17.3535  18.0328  18.2852  18.3265  18.7333  19.5726  20.8481
    21.8732  22.3805

          k = 0.0612 0.0353 0.0000 ( 16589 PWs)   bands (ev):

   -58.7893 -45.3820 -45.3819 -45.3817 -45.3816 -45.3305 -45.3305 -45.3297
   -45.3296 -45.3114 -45.3093 -32.9300 -32.7751 -32.7682 -12.0512 -11.0747
    -3.2262  -0.1955  -0.0105   0.0703   0.8274   1.0181   1.8009   4.7315
     4.8774   4.9725   5.0452   6.7810   7.4022   8.0753   9.1525  10.8099
    11.1919  12.3787  13.0637  13.1548  14.2903  14.3644  15.0667  16.4188
    17.0809  17.3365  17.9871  18.3967  18.4256  18.7096  19.5049  20.6232
    21.9058  22.4291

          k = 0.0510 0.0295 0.0000 ( 16589 PWs)   bands (ev):

   -58.7895 -45.3820 -45.3819 -45.3817 -45.3816 -45.3305 -45.3305 -45.3296
   -45.3296 -45.3114 -45.3093 -32.9305 -32.7724 -32.7676 -12.0663 -11.0830
    -3.2451  -0.1553  -0.0259   0.1192   0.8528   0.9931   1.8059   4.7762
     4.9451   4.9490   5.0686   6.7456   7.3800   8.0098   9.1197  10.7201
    11.1678  12.4420  13.0410  13.0967  14.3636  14.4575  15.0490  16.4093
    17.0276  17.2392  18.0517  18.4973  18.5183  18.6890  19.4489  20.3962
    21.9339  22.3170

          k = 0.0408 0.0236 0.0000 ( 16583 PWs)   bands (ev):

   -58.7897 -45.3820 -45.3819 -45.3817 -45.3816 -45.3305 -45.3305 -45.3296
   -45.3296 -45.3114 -45.3093 -32.9310 -32.7702 -32.7671 -12.0788 -11.0898
    -3.2607  -0.1218  -0.0385   0.1627   0.8740   0.9686   1.8097   4.8157
     4.9293   5.0049   5.0880   6.7139   7.3616   7.9538   9.0934  10.6422
    11.1492  12.4992  13.0187  13.0487  14.3617  14.6189  15.0348  16.3867
    16.9806  17.1102  18.1784  18.5846  18.5997  18.6718  19.4049  20.1741
    21.9612  22.2196

          k = 0.0306 0.0177 0.0000 ( 16581 PWs)   bands (ev):

   -58.7898 -45.3820 -45.3820 -45.3817 -45.3817 -45.3305 -45.3305 -45.3296
   -45.3296 -45.3115 -45.3094 -32.9314 -32.7685 -32.7667 -12.0885 -11.0951
    -3.2728  -0.0955  -0.0484   0.1993   0.8907   0.9464   1.8124   4.8484
     4.9136   5.0546   5.1034   6.6873   7.3472   7.9088   9.0733  10.5792
    11.1352  12.5485  12.9976  13.0110  14.3592  14.7673  15.0238  16.3518
    16.9421  16.9894  18.3279  18.6561  18.6583  18.6658  19.3725  19.9643
    21.9873  22.1400

          k = 0.0204 0.0118 0.0000 ( 16569 PWs)   bands (ev):

   -58.7899 -45.3820 -45.3820 -45.3817 -45.3817 -45.3305 -45.3305 -45.3296
   -45.3296 -45.3115 -45.3094 -32.9317 -32.7672 -32.7664 -12.0955 -11.0989
    -3.2816  -0.0764  -0.0554   0.2273   0.9028   0.9284   1.8143   4.8728
     4.9023   5.0921   5.1145   6.6668   7.3368   7.8758   9.0590  10.5328
    11.1254  12.5874  12.9796  12.9840  14.3568  14.8922  15.0160  16.3084
    16.8974  16.9136  18.4755  18.6485  18.7093  18.7143  19.3508  19.7785
    22.0101  22.0808

          k = 0.0102 0.0059 0.0000 ( 16573 PWs)   bands (ev):

   -58.7900 -45.3820 -45.3820 -45.3817 -45.3817 -45.3305 -45.3305 -45.3296
   -45.3296 -45.3115 -45.3094 -32.9318 -32.7665 -32.7663 -12.0997 -11.1012
    -3.2868  -0.0650  -0.0597   0.2450   0.9101   0.9167   1.8154   4.8880
     4.8954   5.1155   5.1212   6.6540   7.3305   7.8557   9.0505  10.5045
    11.1196  12.6129  12.9669  12.9677  14.3552  14.9785  15.0114  16.2693
    16.8424  16.8961  18.5930  18.6426  18.7422  18.7436  19.3387  19.6394
    22.0261  22.0442

          k = 0.0000 0.0000 0.0000 ( 16581 PWs)   bands (ev):

   -58.7900 -45.3820 -45.3820 -45.3817 -45.3817 -45.3305 -45.3305 -45.3296
   -45.3296 -45.3115 -45.3094 -32.9319 -32.7662 -32.7662 -12.1011 -11.1020
    -3.2886  -0.0611  -0.0611   0.2511   0.9126   0.9126   1.8158   4.8931
     4.8931   5.1235   5.1235   6.6495   7.3284   7.8490   9.0477  10.4950
    11.1177  12.6219  12.9622  12.9622  14.3546  15.0099  15.0099  16.2532
    16.8245  16.8902  18.6406  18.6406  18.7533  18.7533  19.3348  19.5849
    22.0318  22.0318

     Writing all to output data dir ./MoSe2.save/
 
     init_run     :      0.12s CPU      0.30s WALL (       1 calls)
     electrons    :     46.26s CPU     46.69s WALL (       1 calls)

     Called by init_run:
     wfcinit      :      0.00s CPU      0.00s WALL (       1 calls)
     wfcinit:wfcr :      0.87s CPU      0.92s WALL (      64 calls)
     potinit      :      0.04s CPU      0.05s WALL (       1 calls)
     hinit0       :      0.05s CPU      0.21s WALL (       1 calls)

     Called by electrons:
     c_bands      :     46.26s CPU     46.69s WALL (       1 calls)
     v_of_rho     :      0.01s CPU      0.01s WALL (       1 calls)
     v_h          :      0.00s CPU      0.00s WALL (       1 calls)
     v_xc         :      0.00s CPU      0.01s WALL (       1 calls)

     Called by c_bands:
     init_us_2    :      0.01s CPU      0.01s WALL (      64 calls)
     init_us_2:cp :      0.01s CPU      0.01s WALL (      64 calls)
     cegterg      :     40.77s CPU     41.14s WALL (     218 calls)

     Called by sum_band:

     Called by *egterg:
     cdiaghg      :     15.55s CPU     15.63s WALL (    3884 calls)
     cegterg:over :      3.58s CPU      3.63s WALL (    3820 calls)
     cegterg:upda :      2.28s CPU      2.29s WALL (    3820 calls)
     cegterg:last :      2.68s CPU      2.69s WALL (    2107 calls)
     cdiaghg:chol :      0.65s CPU      0.66s WALL (    3884 calls)
     cdiaghg:inve :      0.10s CPU      0.11s WALL (    3884 calls)
     cdiaghg:para :      1.07s CPU      1.07s WALL (    7768 calls)
     h_psi        :     16.96s CPU     17.23s WALL (    4102 calls)
     g_psi        :      0.07s CPU      0.07s WALL (    3820 calls)

     Called by h_psi:
     h_psi:calbec :      0.70s CPU      0.71s WALL (    4102 calls)
     vloc_psi     :     15.93s CPU     16.18s WALL (    4102 calls)
     add_vuspsi   :      0.27s CPU      0.28s WALL (    4102 calls)

     General routines
     calbec       :      0.69s CPU      0.71s WALL (    4102 calls)
     fft          :      0.05s CPU      0.20s WALL (      11 calls)
     fftw         :     15.11s CPU     15.34s WALL (  216672 calls)
 
     Parallel routines
 
     PWSCF        :     48.54s CPU     54.67s WALL

 
   This run was terminated on:  10:30:43   3May2023            

=------------------------------------------------------------------------------=
   JOB DONE.
=------------------------------------------------------------------------------=
